INSANE! Membrane UpperLeaflet>POPC=1 LowerLeaflet>POPC=1 in water
 1430
    1PMMA    CM    1   2.123   3.808   3.268 -0.1915 -0.0385 -0.3022
    1PMMA    OM    2   1.855   3.872   3.321  0.4231  0.3242  0.1082
    2PMMA    CM    3   2.169   3.681   3.018  0.0131 -0.0388  0.0728
    2PMMA    OM    4   1.977   3.491   2.957  0.1787 -0.2778 -0.1041
    3PMMA    CM    5   2.402   3.681   2.851 -0.8591  0.1448  0.0436
    3PMMA    OM    6   2.290   3.809   2.636  0.0330 -0.0826  0.1624
    4PMMA    CM    7   2.629   3.546   2.723  0.0234 -0.1816  0.1902
    4PMMA    OM    8   2.773   3.813   2.729  0.2335  0.0521  0.0375
    5PMMA    CM    9   2.712   3.312   2.577 -0.1747 -0.1452 -0.2662
    5PMMA    OM   10   2.448   3.279   2.510  0.0478  0.0211 -0.2578
    6PMMA    CM   11   2.829   3.072   2.567  0.1133  0.0390 -0.1393
    6PMMA    OM   12   3.060   3.177   2.445  0.0263 -0.3922  0.0959
    7PMMA    CM   13   2.923   2.807   2.685  0.3163 -0.2584  0.2239
    7PMMA    OM   14   2.648   2.724   2.699  0.1713 -0.2622 -0.1564
    8PMMA    CM   15   3.061   2.636   2.504  0.3201 -0.0409  0.1265
    8PMMA    OM   16   3.092   2.413   2.684 -0.2844  0.0839 -0.2005
    9PMMA    CM   17   3.172   2.574   2.256  0.3380  0.2068  0.1315
    9PMMA    OM   18   3.381   2.761   2.297 -0.0377 -0.1143 -0.1244
   10PMMA    CM   19   3.283   2.315   2.201  0.4183 -0.1106 -0.0270
   10PMMA    OM   20   3.488   2.371   2.028  0.1465 -0.2422  0.1349
   11PMMA    CM   21   3.301   2.076   2.310 -0.0625 -0.2459 -0.1113
   11PMMA    OM   22   3.536   2.089   2.466  0.1110  0.0052 -0.0716
   12PMMA    CM   23   3.154   1.841   2.270 -0.2210  0.1324 -0.3346
   12PMMA    OM   24   3.332   1.656   2.129  0.5247  0.3240 -0.1198
   13PMMA    CM   25   2.938   1.706   2.379 -0.1259 -0.1593  0.0224
   13PMMA    OM   26   3.017   1.846   2.623 -0.2715 -0.1269  0.1323
   14PMMA    CM   27   2.677   1.607   2.421  0.0545  0.3740 -0.2678
   14PMMA    OM   28   2.557   1.813   2.578  0.1206 -0.0033  0.0286
   15PMMA    CM   29   2.493   1.412   2.515  0.1105  0.1330 -0.2078
   15PMMA    OM   30   2.293   1.477   2.316  0.0588 -0.1735  0.3400
   16ETO    ETO   31   3.679   4.638   5.087 -0.1794  0.0958 -0.0741
   17ETO    ETO   32   0.938   1.677   1.486 -0.3656  0.1949  0.1523
   18ETO    ETO   33   2.947   0.976   4.324  0.1493  0.0086 -0.0642
   19ETO    ETO   34   3.726   2.283   3.218  0.2562 -0.1706 -0.1698
   20ETO    ETO   35   0.524   1.226   4.590 -0.0161  0.1275 -0.2571
   21ETO    ETO   36   0.317   0.525   2.579  0.0502  0.0719 -0.0366
   22ETO    ETO   37   4.500   1.276   2.937 -0.1512  0.0814 -0.2475
   23ETO    ETO   38   0.098   1.331   3.974  0.1089 -0.5167  0.1637
   24ETO    ETO   39   0.376   1.173   0.851  0.2009 -0.0346 -0.0556
   25ETO    ETO   40   0.029   3.920   4.986  0.0851  0.1861 -0.4147
   26ETO    ETO   41   1.328   0.050   2.994  0.0035 -0.0368  0.4462
   27ETO    ETO   42   3.150   0.314   0.236  0.2142  0.2258  0.1183
   28ETO    ETO   43   2.757   1.614   1.413 -0.2238  0.2385  0.1298
   29ETO    ETO   44   2.207   2.530   4.193 -0.2010  0.3924  0.0047
   30ETO    ETO   45   3.971   1.439   2.193 -0.0351 -0.1315 -0.2544
   31ETO    ETO   46   0.992   1.323   1.175 -0.0704 -0.0383  0.2046
   32ETO    ETO   47   4.316   3.501   2.778 -0.0595 -0.1541 -0.0628
   33ETO    ETO   48   4.023   5.007   1.506  0.0025 -0.3301  0.0554
   34ETO    ETO   49   3.266   0.239   1.107  0.3999 -0.1391 -0.1119
   35ETO    ETO   50   2.863   4.906   3.069  0.2030  0.1677 -0.2094
   36ETO    ETO   51   2.587   2.622   3.741  0.2075  0.2690  0.3545
   37ETO    ETO   52   1.613   0.724   5.002 -0.1883 -0.0900  0.4351
   38ETO    ETO   53   4.486   2.542   3.159 -0.1616  0.2650  0.2582
   39ETO    ETO   54   5.054   0.269   4.479  0.2780 -0.0123 -0.0094
   40ETO    ETO   55   1.887   4.789   3.558 -0.1255 -0.1558 -0.2537
   41ETO    ETO   56   1.250   0.926   0.821  0.0806  0.0726 -0.0245
   42ETO    ETO   57   3.116   4.918   4.884  0.0399 -0.1248  0.2345
   43ETO    ETO   58   2.111   1.188   3.758 -0.1943  0.2165 -0.7202
   44ETO    ETO   59   3.992   2.531   1.172  0.2397  0.1055 -0.3744
   45ETO    ETO   60   1.225   4.072   4.842  0.0899 -0.1406  0.1434
   46ETO    ETO   61   4.915   3.328   0.755  0.2401 -0.2535 -0.0230
   47ETO    ETO   62   3.137   2.816   0.292 -0.0470  0.0808 -0.1050
   48ETO    ETO   63   0.564   2.780   1.168  0.2352 -0.4208  0.0063
   49ETO    ETO   64   3.500   1.241   0.210 -0.2284  0.0261  0.2220
   50ETO    ETO   65   4.220   3.867   0.328 -0.0666  0.0266 -0.3733
   51ETO    ETO   66   0.018   3.400   4.190  0.0884 -0.1186  0.0171
   52ETO    ETO   67   1.531   1.892   0.066 -0.1626  0.0932 -0.4403
   53ETO    ETO   68   3.723   0.967   4.585  0.0280  0.0048 -0.1273
   54ETO    ETO   69   0.544   5.002   3.166  0.3158  0.1518 -0.0559
   55ETO    ETO   70   1.668   3.288   2.159 -0.0256 -0.2135  0.2244
   56ETO    ETO   71   0.016   1.196   0.089  0.2317  0.4217  0.1600
   57ETO    ETO   72   4.556   2.126   1.408  0.1909  0.2416  0.2500
   58ETO    ETO   73   0.614   3.925   2.147  0.2367 -0.1429  0.1167
   59ETO    ETO   74   4.135   2.042   4.357 -0.1137 -0.0464  0.2735
   60ETO    ETO   75   1.346   3.167   4.869  0.0951 -0.0302  0.1809
   61ETO    ETO   76   2.650   1.428   1.896 -0.1940  0.1388  0.1450
   62ETO    ETO   77   1.146   2.308   4.314  0.0362 -0.1250 -0.0814
   63ETO    ETO   78   3.605   0.851   1.142 -0.0015 -0.0165 -0.3704
   64ETO    ETO   79   2.248   3.358   1.442  0.0365  0.3565  0.0044
   65ETO    ETO   80   1.040   2.066   1.614  0.1846  0.1969 -0.0200
   66ETO    ETO   81   1.967   0.750   0.842  0.4271  0.3900 -0.0034
   67ETO    ETO   82   3.105   0.248   1.600 -0.1612 -0.0882  0.1512
   68ETO    ETO   83   3.817   3.915   1.127 -0.0368 -0.1431  0.2740
   69ETO    ETO   84   0.451   3.584   2.997 -0.1556  0.1908 -0.4233
   70ETO    ETO   85   4.507   0.242   4.955  0.1381 -0.0716 -0.3224
   71ETO    ETO   86   3.567   2.645   1.168  0.0605 -0.1995  0.1001
   72ETO    ETO   87   4.817   4.770   2.710 -0.1996  0.2122  0.2793
   73ETO    ETO   88   0.005   3.049   0.263  0.2213 -0.2795 -0.1253
   74ETO    ETO   89   4.960   3.966   1.015  0.1980  0.0219 -0.2540
   75ETO    ETO   90   3.729   0.176   3.838 -0.0757 -0.2168  0.1662
   76ETO    ETO   91   1.924   1.193   2.842  0.2732 -0.3092  0.1801
   77ETO    ETO   92   3.708   2.725   3.836 -0.2107 -0.1277 -0.1213
   78ETO    ETO   93   0.099   2.429   4.195  0.4220 -0.2226 -0.0822
   79ETO    ETO   94   1.660   3.899   3.746  0.0374  0.0122  0.2075
   80ETO    ETO   95   1.404   3.617   4.803 -0.1740  0.0909 -0.2095
   81ETO    ETO   96   0.303   2.657   3.340 -0.3085  0.2617 -0.4273
   82ETO    ETO   97   4.396   5.089   0.442 -0.0418  0.2142 -0.0241
   83ETO    ETO   98   2.710   2.220   0.796  0.1728  0.3657  0.2924
   84ETO    ETO   99   1.714   3.438   1.420  0.0510  0.2402 -0.4408
   85ETO    ETO  100   0.179   3.246   3.814 -0.2037 -0.0411  0.1611
   86ETO    ETO  101   2.863   4.546   3.305 -0.2002  0.0321 -0.0875
   87ETO    ETO  102   2.043   4.251   2.337 -0.2015 -0.6734  0.2090
   88ETO    ETO  103   1.771   3.042   5.083  0.2364 -0.0000 -0.1423
   89ETO    ETO  104   2.510   4.161   3.140 -0.1234 -0.1513  0.0213
   90ETO    ETO  105   3.533   3.488   0.187  0.2674  0.1638  0.0355
   91ETO    ETO  106   2.198   0.384   3.065  0.0179  0.3271  0.1834
   92ETO    ETO  107   4.125   2.864   0.421 -0.2969  0.3318  0.1381
   93ETO    ETO  108   1.656   0.913   1.240  0.0316  0.1351  0.0903
   94ETO    ETO  109   0.901   1.528   2.804  0.1559  0.3417  0.1048
   95ETO    ETO  110   3.559   2.755   3.335  0.2511  0.3673 -0.1050
   96ETO    ETO  111   2.602   4.669   1.823  0.1905 -0.1719 -0.1902
   97ETO    ETO  112   0.464   1.785   4.483  0.1450 -0.0960 -0.0995
   98ETO    ETO  113   4.481   0.745   3.052 -0.4442 -0.2920  0.2973
   99ETO    ETO  114   0.404   1.025   0.117 -0.3978 -0.0322  0.0097
  100ETO    ETO  115   0.843   0.822   1.220 -0.1680 -0.1011 -0.0406
  101ETO    ETO  116   0.595   0.303   2.290  0.3870 -0.0057 -0.1713
  102ETO    ETO  117   3.095   0.586   1.236 -0.2778  0.0985 -0.0853
  103ETO    ETO  118   2.428   0.724   2.313  0.0767  0.4030  0.1836
  104ETO    ETO  119   4.588   0.490   0.793  0.2382 -0.4557 -0.0173
  105ETO    ETO  120   3.107   4.446   3.629  0.0672 -0.0644  0.0957
  106ETO    ETO  121   2.521   4.727   4.220  0.2247 -0.0553 -0.1272
  107ETO    ETO  122   2.913   1.207   1.260  0.3322  0.1047 -0.0367
  108ETO    ETO  123   2.178   2.491   4.633  0.1911 -0.0508  0.1333
  109ETO    ETO  124   0.301   2.056   2.165 -0.3452 -0.4319 -0.2080
  110ETO    ETO  125   3.238   4.789   4.505 -0.4512 -0.1309  0.0946
  111ETO    ETO  126   3.926   4.828   2.140 -0.0639  0.0688 -0.1890
  112ETO    ETO  127   3.501   3.458   3.585  0.0461  0.1881  0.2916
  113ETO    ETO  128   4.889   2.462   0.280  0.3052  0.3520 -0.4229
  114ETO    ETO  129   1.171   1.323   3.609  0.1100 -0.3169 -0.0864
  115ETO    ETO  130   0.475   0.497   2.979  0.0774 -0.1304  0.1531
  116ETO    ETO  131   0.963   0.112   5.103  0.0058  0.2206 -0.0386
  117ETO    ETO  132   2.429   2.712   0.785  0.2116 -0.1064 -0.1380
  118ETO    ETO  133   0.618   3.055   4.781 -0.0247  0.1693  0.0276
  119ETO    ETO  134   0.483   1.654   2.955 -0.2407  0.2784  0.1032
  120ETO    ETO  135   4.450   3.122   4.526  0.3719 -0.1284 -0.1910
  121ETO    ETO  136   1.129   3.184   0.141 -0.1130  0.0486 -0.0791
  122ETO    ETO  137   0.473   3.666   3.448  0.0477 -0.1411  0.0638
  123ETO    ETO  138   1.685   1.230   3.657 -0.2293 -0.0027 -0.0554
  124ETO    ETO  139   3.911   3.513   2.036  0.5642 -0.1670  0.0088
  125ETO    ETO  140   0.137   4.812   2.340  0.0587 -0.1447  0.2129
  126ETO    ETO  141   1.289   0.443   2.553  0.3108  0.0857  0.5544
  127ETO    ETO  142   1.816   1.333   1.862  0.1188  0.0236 -0.2033
  128ETO    ETO  143   2.683   1.398   4.478  0.0593  0.0613  0.0989
  129ETO    ETO  144   0.047   4.184   4.323 -0.3801  0.1338 -0.2877
  130ETO    ETO  145   1.195   1.866   4.342 -0.0510 -0.0358  0.3493
  131ETO    ETO  146   2.884   0.685   0.011  0.1586 -0.1324 -0.2826
  132ETO    ETO  147   0.201   4.201   0.758  0.0572 -0.0014  0.2506
  133ETO    ETO  148   4.835   2.906   0.933  0.1018 -0.1644 -0.0094
  134ETO    ETO  149   0.330   1.797   3.967 -0.2475 -0.1819 -0.1458
  135ETO    ETO  150   2.044   0.699   1.968 -0.1111  0.0271 -0.0649
  136ETO    ETO  151   0.246   4.552   1.928  0.4516  0.0374  0.0169
  137ETO    ETO  152   1.336   2.229   1.369  0.2868 -0.2341  0.0483
  138ETO    ETO  153   1.692   0.352   4.578 -0.1646  0.0139 -0.3010
  139ETO    ETO  154   0.224   1.525   1.466  0.1408 -0.1051  0.2166
  140ETO    ETO  155   2.709   5.044   4.956  0.0366 -0.5699 -0.0417
  141ETO    ETO  156   1.093   4.694   3.579  0.0742  0.2150  0.2949
  142ETO    ETO  157   0.558   0.435   0.987 -0.0253  0.1243  0.2170
  143ETO    ETO  158   3.624   3.154   1.007 -0.1685  0.1958 -0.1892
  144ETO    ETO  159   1.510   3.243   3.157  0.2322  0.2965 -0.0198
  145ETO    ETO  160   4.109   1.933   3.166 -0.1953  0.1463  0.0628
  146ETO    ETO  161   3.254   4.907   2.672  0.0736 -0.0815 -0.1767
  147ETO    ETO  162   4.529   4.935   1.516 -0.1055  0.0941  0.2429
  148ETO    ETO  163   4.527   1.280   2.320  0.0393  0.0232  0.0448
  149ETO    ETO  164   4.852   4.215   2.725  0.0613 -0.1487 -0.1878
  150ETO    ETO  165   0.873   4.141   4.566 -0.1086  0.2349  0.3176
  151ETO    ETO  166   4.202   0.557   2.206 -0.0272 -0.2146  0.2416
  152ETO    ETO  167   1.913   0.754   3.822  0.0725 -0.1704  0.0044
  153ETO    ETO  168   3.867   1.684   4.041 -0.0991  0.3776 -0.1152
  154ETO    ETO  169   0.592   1.380   1.742  0.2752 -0.1757  0.1775
  155ETO    ETO  170   4.977   2.332   3.842  0.2926  0.4314  0.5594
  156ETO    ETO  171   3.554   3.216   2.121 -0.0971  0.0928  0.0068
  157ETO    ETO  172   2.401   0.898   3.770 -0.1414  0.2139 -0.3550
  158ETO    ETO  173   3.404   5.071   1.802  0.2102  0.1875 -0.2583
  159ETO    ETO  174   3.541   1.229   2.222 -0.4285 -0.1248  0.3677
  160ETO    ETO  175   2.370   1.602   0.309  0.2509  0.1146 -0.1276
  161ETO    ETO  176   2.525   4.154   3.662 -0.2558  0.4156 -0.1462
  162ETO    ETO  177   2.537   1.948   0.453 -0.1702  0.1880  0.4856
  163ETO    ETO  178   1.122   1.027   1.987  0.1289 -0.0429 -0.0789
  164ETO    ETO  179   4.508   3.254   0.909  0.3696  0.0880 -0.1733
  165ETO    ETO  180   2.607   0.061   3.860 -0.3228  0.1494  0.3272
  166ETO    ETO  181   5.079   4.729   3.137 -0.1277  0.2914  0.2924
  167ETO    ETO  182   0.877   4.754   4.971 -0.2468 -0.3130 -0.2696
  168ETO    ETO  183   0.624   3.439   1.133 -0.0893  0.0924  0.1295
  169ETO    ETO  184   3.042   4.592   1.083 -0.0158 -0.0092 -0.1435
  170ETO    ETO  185   0.904   2.560   1.740 -0.0479 -0.0760  0.1442
  171ETO    ETO  186   0.187   2.097   4.429 -0.0491 -0.3168 -0.3376
  172ETO    ETO  187   1.294   2.000   0.876 -0.2000  0.0152  0.1708
  173ETO    ETO  188   3.751   3.946   4.488 -0.0679 -0.3444  0.0422
  174ETO    ETO  189   4.572   4.054   3.743 -0.1001  0.3370  0.4122
  175ETO    ETO  190   3.077   2.489   0.958 -0.2747 -0.1876 -0.2063
  176ETO    ETO  191   4.017   1.361   0.067  0.0223 -0.0049  0.1621
  177ETO    ETO  192   1.840   1.578   3.859 -0.2195 -0.0280 -0.0200
  178ETO    ETO  193   2.489   0.064   3.426  0.2118  0.1005 -0.0852
  179ETO    ETO  194   3.133   4.201   1.394 -0.2108  0.1702 -0.2631
  180ETO    ETO  195   0.041   1.703   2.245 -0.2558  0.0000  0.3414
  181ETO    ETO  196   1.346   2.354   3.919 -0.0415  0.4478 -0.2032
  182ETO    ETO  197   1.597   3.029   0.375 -0.0223 -0.2642  0.2087
  183ETO    ETO  198   0.756   2.729   0.279 -0.0724 -0.1953  0.0280
  184ETO    ETO  199   1.433   0.252   0.836  0.7180  0.0482  0.0376
  185ETO    ETO  200   3.969   4.177   3.056  0.2438  0.2008 -0.2332
  186ETO    ETO  201   3.381   4.920   2.246  0.1575 -0.3879 -0.3238
  187ETO    ETO  202   1.237   0.825   0.188  0.0625  0.2454 -0.4663
  188ETO    ETO  203   2.978   2.844   3.552 -0.1801  0.0769  0.1830
  189ETO    ETO  204   3.243   1.204   3.128 -0.3251 -0.0872  0.2263
  190ETO    ETO  205   2.749   3.285   2.127 -0.1104 -0.2401 -0.0655
  191ETO    ETO  206   4.010   1.840   0.280 -0.0798  0.0700 -0.1662
  192ETO    ETO  207   0.641   2.153   1.029 -0.2387  0.2052  0.0781
  193ETO    ETO  208   1.990   3.632   4.273  0.1563  0.3372 -0.1009
  194ETO    ETO  209   1.577   1.884   2.685  0.3825 -0.1035 -0.1827
  195ETO    ETO  210   0.183   3.471   0.972 -0.1219 -0.0851  0.0889
  196ETO    ETO  211   0.918   3.067   1.875  0.1464 -0.1025 -0.2379
  197ETO    ETO  212   5.022   3.317   5.033 -0.0093  0.1805 -0.5888
  198ETO    ETO  213   2.097   1.561   2.710  0.1097  0.2384  0.2165
  199ETO    ETO  214   0.067   0.811   0.291 -0.1971  0.0060 -0.0311
  200ETO    ETO  215   3.107   3.511   0.683 -0.0404 -0.1371 -0.2654
  201ETO    ETO  216   1.591   3.306   3.642  0.2345 -0.2861  0.1242
  202ETO    ETO  217   1.230   2.957   0.682 -0.0721 -0.2820  0.3186
  203ETO    ETO  218   1.534   1.388   1.148 -0.2587  0.2711  0.2020
  204ETO    ETO  219   2.935   4.209   2.469 -0.1160 -0.2952  0.2124
  205ETO    ETO  220   3.517   4.590   3.000 -0.1241 -0.0863 -0.0343
  206ETO    ETO  221   3.407   2.485   0.361  0.4481  0.2067  0.3003
  207ETO    ETO  222   0.170   3.177   4.566 -0.0778  0.3463 -0.0465
  208ETO    ETO  223   4.073   3.942   4.072  0.0673 -0.1631 -0.0331
  209ETO    ETO  224   0.872   2.935   2.672 -0.1569  0.0596 -0.3471
  210ETO    ETO  225   2.154   3.421   0.436  0.1185  0.1349 -0.0399
  211ETO    ETO  226   3.190   1.472   4.844  0.2860 -0.0201  0.0193
  212ETO    ETO  227   3.248   0.764   0.407 -0.0465  0.0688  0.5527
  213ETO    ETO  228   0.095   0.488   0.812  0.3144 -0.0994 -0.0065
  214ETO    ETO  229   3.741   2.503   2.577 -0.5029 -0.0203  0.4146
  215ETO    ETO  230   2.935   4.141   3.408  0.0183 -0.0146  0.0542
  216ETO    ETO  231   4.395   1.741   2.484  0.1954  0.1785 -0.1306
  217ETO    ETO  232   3.740   2.947   2.510 -0.0931  0.1669  0.2197
  218ETO    ETO  233   4.024   3.065   3.776  0.1502  0.1667 -0.2170
  219ETO    ETO  234   2.222   4.338   4.965 -0.1062 -0.3088 -0.0026
  220ETO    ETO  235   2.818   4.721   4.607  0.0151 -0.0692  0.0058
  221ETO    ETO  236   1.984   2.700   0.924  0.2453  0.3077 -0.0343
  222ETO    ETO  237   2.519   2.709   4.469  0.2701 -0.1260  0.3009
  223ETO    ETO  238   1.206   1.557   0.885  0.3986 -0.2008  0.4322
  224ETO    ETO  239   2.934   4.234   0.887  0.4318 -0.0584  0.2172
  225ETO    ETO  240   0.958   1.962   0.564  0.0491  0.0089  0.0181
  226ETO    ETO  241   0.136   0.721   3.124  0.3400 -0.3055 -0.2111
  227ETO    ETO  242   3.110   3.877   2.189 -0.5534 -0.1369  0.1992
  228ETO    ETO  243   4.776   1.354   1.920 -0.2048 -0.0763 -0.1100
  229ETO    ETO  244   2.657   5.112   2.095  0.2565  0.1784  0.1766
  230ETO    ETO  245   2.029   2.442   1.813  0.0630 -0.3414 -0.2813
  231ETO    ETO  246   4.076   2.534   3.098  0.1783  0.0600  0.0631
  232ETO    ETO  247   4.430   4.936   0.870  0.0473 -0.1162 -0.1313
  233ETO    ETO  248   4.527   3.603   4.559 -0.3051  0.0830  0.0929
  234ETO    ETO  249   3.734   3.804   4.895  0.3752 -0.1283  0.0627
  235ETO    ETO  250   4.422   0.641   1.465 -0.0414  0.0501 -0.1702
  236ETO    ETO  251   2.099   4.729   0.600  0.1706 -0.0620  0.0791
  237ETO    ETO  252   1.787   4.607   2.558  0.0006  0.1526  0.0162
  238ETO    ETO  253   4.293   1.225   1.869 -0.2733 -0.1733  0.1054
  239ETO    ETO  254   1.323   3.683   1.417  0.0368 -0.0086 -0.0574
  240ETO    ETO  255   1.916   0.235   4.176 -0.4056  0.3751  0.0577
  241ETO    ETO  256   5.086   2.594   1.220 -0.1246 -0.0374 -0.1313
  242ETO    ETO  257   0.593   3.587   4.647  0.1054 -0.2687  0.2703
  243ETO    ETO  258   4.099   3.446   4.781  0.2301  0.1282  0.2171
  244ETO    ETO  259   1.180   1.000   3.906  0.3597  0.1325 -0.0795
  245ETO    ETO  260   3.526   1.673   4.426 -0.0254 -0.0190  0.2653
  246ETO    ETO  261   2.422   1.579   4.195  0.0434  0.0255  0.0284
  247ETO    ETO  262   2.608   4.269   4.172  0.1486  0.0305  0.2382
  248ETO    ETO  263   3.089   0.487   4.360 -0.0293  0.3840  0.1072
  249ETO    ETO  264   0.827   3.484   2.189  0.0396  0.1902  0.0255
  250ETO    ETO  265   1.696   2.524   3.846 -0.3298 -0.0048  0.6109
  251ETO    ETO  266   1.293   2.329   1.823  0.2566 -0.5075 -0.0192
  252ETO    ETO  267   3.680   1.447   4.769  0.1840  0.0522  0.0852
  253ETO    ETO  268   0.752   4.590   4.277  0.0414  0.2891 -0.0948
  254ETO    ETO  269   3.957   3.230   0.689  0.1831 -0.1578  0.0479
  255ETO    ETO  270   4.345   0.890   0.895  0.1409  0.2758  0.3482
  256ETO    ETO  271   0.597   2.002   0.213  0.2249  0.5154 -0.2135
  257ETO    ETO  272   3.066   0.406   4.830 -0.2367  0.0155  0.0680
  258ETO    ETO  273   4.689   4.035   5.039  0.1240 -0.0514  0.4940
  259ETO    ETO  274   3.967   2.547   1.716 -0.6736  0.2413 -0.3536
  260ETO    ETO  275   3.652   5.019   2.574  0.4913  0.2544 -0.4500
  261ETO    ETO  276   0.881   4.295   4.956 -0.0792 -0.2275 -0.1815
  262ETO    ETO  277   0.050   2.728   4.622  0.5820 -0.4036 -0.0731
  263ETO    ETO  278   3.938   3.511   0.286 -0.1216  0.0860  0.2128
  264ETO    ETO  279   4.533   1.779   4.398  0.1763  0.0386 -0.3017
  265ETO    ETO  280   1.806   4.722   3.027  0.2913  0.2025  0.1233
  266ETO    ETO  281   1.596   3.024   3.996  0.1265 -0.1173 -0.2289
  267ETO    ETO  282   1.656   4.967   4.613 -0.1088 -0.1349  0.2970
  268ETO    ETO  283   0.547   2.028   3.238  0.3879 -0.2137  0.0082
  269ETO    ETO  284   0.391   2.965   0.087  0.0379  0.2108  0.5599
  270ETO    ETO  285   1.128   1.864   3.484  0.1417  0.1331 -0.2608
  271ETO    ETO  286   1.737   1.143   4.102  0.1038  0.0949  0.0232
  272ETO    ETO  287   3.751   2.158   1.094  0.0730  0.0020  0.3845
  273ETO    ETO  288   3.740   1.987   4.540 -0.2849 -0.0613  0.1075
  274ETO    ETO  289   3.409   3.680   1.095  0.3072 -0.1232  0.2402
  275ETO    ETO  290   2.593   3.828   4.992  0.4256 -0.2665 -0.1670
  276ETO    ETO  291   4.973   1.763   4.685  0.2108  0.0921 -0.2499
  277ETO    ETO  292   0.806   0.279   3.149 -0.2713 -0.0281  0.0533
  278ETO    ETO  293   2.898   3.847   0.455 -0.2697 -0.2780  0.0140
  279ETO    ETO  294   1.875   0.112   0.291  0.0152 -0.0265  0.1023
  280ETO    ETO  295   4.101   2.414   4.649 -0.2186 -0.0901  0.0628
  281ETO    ETO  296   0.808   5.018   4.099  0.0126  0.1452 -0.0932
  282ETO    ETO  297   1.106   1.904   0.134 -0.2957  0.1696  0.0932
  283ETO    ETO  298   2.726   4.522   3.862 -0.3134  0.2720 -0.5068
  284ETO    ETO  299   3.137   1.403   0.954  0.0068  0.0381 -0.2045
  285ETO    ETO  300   2.273   1.205   0.822  0.3923  0.1857  0.0990
  286ETO    ETO  301   2.279   3.473   5.078 -0.1469 -0.4362 -0.0610
  287ETO    ETO  302   4.004   0.015   0.375  0.3872 -0.0383  0.3433
  288ETO    ETO  303   4.922   5.086   2.371  0.0926  0.2847 -0.1822
  289ETO    ETO  304   4.111   0.941   0.377 -0.0993  0.0618 -0.1436
  290ETO    ETO  305   2.440   1.897   3.213 -0.0054  0.1043  0.2494
  291ETO    ETO  306   4.257   5.045   4.456 -0.1812  0.5943  0.3880
  292ETO    ETO  307   2.171   1.429   3.370  0.1347  0.0996  0.1960
  293ETO    ETO  308   4.933   0.681   1.196  0.1991  0.1283  0.2446
  294ETO    ETO  309   2.327   3.296   3.174 -0.1667  0.1604 -0.1169
  295ETO    ETO  310   2.994   3.910   4.323 -0.1209  0.0699 -0.4295
  296ETO    ETO  311   1.598   2.035   2.103  0.2698  0.1463 -0.0637
  297ETO    ETO  312   2.344   2.991   3.866  0.0100  0.1367 -0.3626
  298ETO    ETO  313   1.999   3.326   3.416 -0.0928 -0.0320  0.0167
  299ETO    ETO  314   0.493   1.009   1.402 -0.0931 -0.0204  0.0468
  300ETO    ETO  315   2.571   0.256   4.673  0.2240 -0.1302 -0.3194
  301ETO    ETO  316   1.420   2.550   3.445 -0.1039 -0.1825 -0.2211
  302ETO    ETO  317   0.772   2.051   3.779  0.0641 -0.1491 -0.1267
  303ETO    ETO  318   1.911   4.821   0.230 -0.0026 -0.2107  0.1826
  304ETO    ETO  319   1.590   0.862   2.087 -0.0429 -0.2251  0.0064
  305ETO    ETO  320   0.952   1.731   4.007 -0.3541 -0.1785 -0.0594
  306ETO    ETO  321   4.647   0.092   3.526  0.2039 -0.0357 -0.3363
  307ETO    ETO  322   3.163   2.426   4.781  0.3712  0.1964 -0.5169
  308ETO    ETO  323   4.233   2.504   0.176  0.0154  0.1167  0.0144
  309ETO    ETO  324   5.010   4.531   0.354 -0.2170  0.1842 -0.0993
  310ETO    ETO  325   0.007   1.788   2.904  0.0180 -0.2763 -0.2020
  311ETO    ETO  326   2.609   0.320   0.408 -0.1522 -0.2017 -0.2222
  312ETO    ETO  327   0.500   3.793   0.711 -0.0123  0.0721 -0.3612
  313ETO    ETO  328   3.186   3.631   2.534  0.2104 -0.0970 -0.0941
  314ETO    ETO  329   3.566   2.930   4.702  0.1197  0.3360  0.2486
  315ETO    ETO  330   3.174   1.613   3.784 -0.0709 -0.1134  0.0667
  316ETO    ETO  331   1.259   3.849   3.852 -0.2665  0.2673 -0.0204
  317ETO    ETO  332   1.822   0.109   2.979 -0.0823 -0.3757 -0.1363
  318ETO    ETO  333   4.325   3.438   0.570  0.1703  0.3469  0.0176
  319ETO    ETO  334   1.462   1.566   4.885 -0.0401  0.1400 -0.4351
  320ETO    ETO  335   0.538   2.336   0.567  0.1933 -0.3345  0.0785
  321ETO    ETO  336   4.832   3.650   2.390  0.0900 -0.2508  0.0904
  322ETO    ETO  337   2.767   0.499   1.525  0.0650 -0.1235  0.0287
  323ETO    ETO  338   2.282   3.006   1.139  0.1670 -0.0317  0.0045
  324ETO    ETO  339   1.966   4.902   4.280  0.0449  0.0175  0.0742
  325ETO    ETO  340   2.088   3.070   1.718  0.1409  0.2678 -0.1402
  326ETO    ETO  341   4.305   3.423   3.800  0.1423  0.2509  0.2196
  327ETO    ETO  342   1.557   4.203   2.571 -0.0948  0.1328  0.0824
  328ETO    ETO  343   3.957   0.557   1.599 -0.0094 -0.1466 -0.1826
  329ETO    ETO  344   0.795   2.811   3.260  0.0439 -0.0923  0.4534
  330ETO    ETO  345   1.343   1.764   1.794 -0.3065  0.1184  0.1731
  331ETO    ETO  346   3.627   3.178   3.328 -0.2035 -0.1720 -0.3398
  332ETO    ETO  347   2.663   1.903   1.721 -0.3522  0.0135  0.1758
  333ETO    ETO  348   0.959   0.224   0.857 -0.0185 -0.0746  0.2102
  334ETO    ETO  349   3.607   3.239   4.041  0.0136 -0.0337  0.0881
  335ETO    ETO  350   0.214   2.612   4.959 -0.1902 -0.0121  0.1234
  336ETO    ETO  351   2.819   0.395   1.950  0.1600  0.0321  0.0128
  337ETO    ETO  352   3.902   1.809   2.460 -0.1367  0.1888 -0.0856
  338ETO    ETO  353   3.069   1.227   0.493 -0.0262 -0.5433  0.1375
  339ETO    ETO  354   3.481   0.960   4.204 -0.1923  0.2341 -0.2308
  340ETO    ETO  355   3.854   1.472   3.391 -0.0106 -0.2301  0.3870
  341ETO    ETO  356   2.679   1.889   4.539  0.0196 -0.2441 -0.2126
  342ETO    ETO  357   3.327   4.065   1.848  0.2092 -0.1532 -0.1618
  343ETO    ETO  358   0.776   4.857   1.752  0.0530 -0.1632  0.2476
  344ETO    ETO  359   2.729   0.656   4.491  0.0060  0.2676 -0.1384
  345ETO    ETO  360   4.606   4.709   4.460 -0.2328 -0.0687  0.2569
  346ETO    ETO  361   0.325   2.608   1.470  0.2010 -0.0932  0.0668
  347ETO    ETO  362   3.810   5.069   4.786 -0.2903  0.0637 -0.1920
  348ETO    ETO  363   4.045   3.219   3.338 -0.3384  0.3450  0.2322
  349ETO    ETO  364   4.299   3.366   2.115 -0.1118 -0.0947  0.1638
  350ETO    ETO  365   1.228   0.814   2.726  0.0990 -0.0310  0.0098
  351ETO    ETO  366   2.757   1.122   2.952  0.2337 -0.1088 -0.1102
  352ETO    ETO  367   0.020   2.040   4.084  0.0136 -0.1242 -0.0056
  353ETO    ETO  368   0.827   2.456   2.840  0.1872  0.0681  0.0759
  354ETO    ETO  369   1.471   3.499   0.959  0.2314 -0.1161  0.2294
  355ETO    ETO  370   1.271   3.607   3.408 -0.0874  0.1947 -0.0941
  356ETO    ETO  371   3.636   4.139   0.585 -0.3542  0.4022  0.0328
  357ETO    ETO  372   0.964   0.542   4.342 -0.1933 -0.0275  0.0172
  358ETO    ETO  373   3.177   3.279   3.352 -0.1208  0.0455 -0.3246
  359ETO    ETO  374   1.299   3.747   0.101  0.2132  0.1338  0.1102
  360ETO    ETO  375   0.369   2.397   3.002 -0.0688  0.1601 -0.0499
  361ETO    ETO  376   2.303   0.823   3.020  0.5351  0.1446 -0.1563
  362ETO    ETO  377   2.377   4.460   4.546  0.0631 -0.0497 -0.2981
  363ETO    ETO  378   3.540   1.843   3.833 -0.0736 -0.1588 -0.1344
  364ETO    ETO  379   1.602   4.249   4.716 -0.3751 -0.0943 -0.2232
  365ETO    ETO  380   5.020   3.614   1.234  0.2383  0.0135  0.2941
  366ETO    ETO  381   3.647   3.550   0.694 -0.1151 -0.0347 -0.1751
  367ETO    ETO  382   2.636   1.252   0.444  0.0303 -0.0281 -0.2419
  368ETO    ETO  383   0.356   2.536   0.919 -0.3089 -0.1000 -0.2361
  369ETO    ETO  384   1.169   3.899   4.336  0.3659 -0.1171 -0.2276
  370ETO    ETO  385   3.742   3.469   1.334 -0.1240  0.0927 -0.4138
  371ETO    ETO  386   3.258   0.948   1.415  0.0683 -0.0420 -0.0023
  372ETO    ETO  387   2.795   0.732   3.929  0.1877  0.0035  0.2191
  373ETO    ETO  388   4.855   2.120   4.339 -0.0243  0.0860 -0.2769
  374ETO    ETO  389   4.160   3.583   0.951 -0.2696 -0.2245  0.2915
  375ETO    ETO  390   1.341   1.068   4.317 -0.0879 -0.1877 -0.1790
  376ETO    ETO  391   0.942   3.108   1.229  0.1623 -0.0641  0.0322
  377ETO    ETO  392   1.051   2.373   0.127  0.2179 -0.2199 -0.2463
  378ETO    ETO  393   0.153   2.425   2.064  0.1807 -0.0370  0.2181
  379ETO    ETO  394   4.809   0.015   0.233 -0.2954  0.1246  0.2279
  380ETO    ETO  395   0.530   1.866   0.655 -0.3465 -0.3281 -0.1125
  381ETO    ETO  396   4.688   4.463   2.358 -0.2099 -0.0053  0.2865
  382ETO    ETO  397   4.758   0.237   2.691 -0.1106  0.0282  0.3657
  383ETO    ETO  398   0.612   1.111   2.866 -0.3825  0.2028 -0.5142
  384ETO    ETO  399   3.956   4.352   1.141  0.1688 -0.0626 -0.0706
  385ETO    ETO  400   0.021   4.882   4.417 -0.1071 -0.1367 -0.3526
  386ETO    ETO  401   2.059   1.857   3.474 -0.3632  0.2717  0.1942
  387ETO    ETO  402   3.008   4.180   3.968 -0.1724  0.0321  0.2662
  388ETO    ETO  403   3.919   4.419   2.702 -0.1699 -0.0896  0.1069
  389ETO    ETO  404   3.267   4.050   3.659 -0.2504  0.3571  0.1040
  390ETO    ETO  405   4.697   0.063   2.009 -0.0872 -0.5368 -0.2313
  391ETO    ETO  406   0.991   0.185   2.443 -0.5891 -0.0404  0.0034
  392ETO    ETO  407   0.706   0.771   1.663  0.1018 -0.0465  0.3753
  393ETO    ETO  408   3.324   2.228   1.217 -0.1880 -0.1200  0.0278
  394ETO    ETO  409   1.077   2.194   2.554 -0.2517 -0.0341  0.2147
  395ETO    ETO  410   2.518   2.250   5.033 -0.1725 -0.4230 -0.0722
  396ETO    ETO  411   0.562   5.034   4.811  0.1484 -0.0618 -0.2543
  397ETO    ETO  412   3.460   1.786   1.134 -0.0908 -0.2943  0.5267
  398ETO    ETO  413   1.133   0.533   1.085 -0.2758  0.2714  0.2366
  399ETO    ETO  414   1.197   0.994   1.382  0.0786  0.3632  0.1383
  400ETO    ETO  415   4.030   4.858   2.590  0.0941  0.0318 -0.2126
  401ETO    ETO  416   1.040   3.711   1.074  0.3000 -0.3104 -0.1415
  402ETO    ETO  417   5.084   3.801   2.701  0.0567  0.1348  0.6052
  403ETO    ETO  418   3.561   3.705   1.955 -0.0687 -0.0290 -0.1541
  404ETO    ETO  419   0.808   1.104   0.825  0.5994 -0.1455 -0.2995
  405ETO    ETO  420   4.406   0.233   3.172  0.0605 -0.1109  0.0644
  406ETO    ETO  421   4.253   2.691   4.351  0.2895 -0.0857 -0.1860
  407ETO    ETO  422   4.880   2.960   4.378 -0.1565 -0.0407  0.3104
  408ETO    ETO  423   3.984   0.207   1.791 -0.1113  0.1539 -0.2567
  409ETO    ETO  424   0.447   2.803   2.928  0.0501 -0.0162 -0.0087
  410ETO    ETO  425   4.753   1.692   2.186  0.3805  0.1371  0.0375
  411ETO    ETO  426   1.679   4.712   0.678 -0.0580  0.0475 -0.1266
  412ETO    ETO  427   0.637   2.257   2.412  0.1154 -0.2357 -0.0372
  413ETO    ETO  428   3.800   0.626   3.268 -0.0529  0.0234 -0.0792
  414ETO    ETO  429   0.510   3.312   4.286 -0.1582  0.3329 -0.0128
  415ETO    ETO  430   2.470   0.304   2.503  0.3199 -0.0713 -0.3358
  416ETO    ETO  431   4.894   3.335   4.608  0.1967  0.0528 -0.1678
  417ETO    ETO  432   0.815   1.482   0.588 -0.1008 -0.0308 -0.2861
  418ETO    ETO  433   0.948   3.318   3.913 -0.0950  0.1315 -0.3825
  419ETO    ETO  434   0.046   4.089   0.373 -0.0444 -0.5721 -0.1259
  420ETO    ETO  435   0.216   3.282   0.568  0.0573  0.4217 -0.1888
  421ETO    ETO  436   4.280   1.554   1.575  0.0844  0.2093 -0.0307
  422ETO    ETO  437   2.565   2.671   1.233 -0.1050  0.3768  0.0102
  423ETO    ETO  438   0.288   4.838   3.491 -0.2595 -0.1542  0.5415
  424ETO    ETO  439   2.702   0.327   5.112  0.5194  0.0264 -0.2121
  425ETO    ETO  440   1.044   3.327   4.668 -0.0441 -0.1463  0.0713
  426ETO    ETO  441   2.493   2.399   0.378 -0.0068 -0.0391  0.2705
  427ETO    ETO  442   1.443   2.530   0.603  0.0985  0.1596  0.0690
  428ETO    ETO  443   4.343   1.415   4.168 -0.0049  0.0859  0.2904
  429ETO    ETO  444   3.074   1.694   3.390  0.3346  0.0152  0.0917
  430ETO    ETO  445   2.310   2.686   5.065  0.0380  0.1694 -0.1366
  431ETO    ETO  446   4.261   0.925   2.625 -0.0973  0.1187 -0.0615
  432ETO    ETO  447   2.182   2.747   2.497  0.3024  0.0168 -0.0844
  433ETO    ETO  448   0.097   3.649   3.252 -0.3362  0.2133 -0.1825
  434ETO    ETO  449   2.385   2.238   1.597 -0.3267  0.2710  0.3014
  435ETO    ETO  450   2.280   4.564   0.250 -0.0049  0.4054 -0.1291
  436ETO    ETO  451   0.148   2.065   0.782 -0.0269  0.0050  0.1640
  437ETO    ETO  452   4.040   0.102   3.374 -0.2055 -0.1215 -0.2186
  438ETO    ETO  453   0.453   1.441   4.215  0.0470 -0.2842  0.1089
  439ETO    ETO  454   5.018   2.533   2.466  0.4026 -0.0593 -0.2730
  440ETO    ETO  455   2.306   1.938   2.185 -0.3838 -0.0704  0.3200
  441ETO    ETO  456   4.477   2.097   4.723  0.2668  0.1499 -0.0985
  442ETO    ETO  457   3.663   3.886   0.177 -0.2179  0.1543  0.0304
  443ETO    ETO  458   4.436   4.864   4.822  0.1519  0.0878  0.2477
  444ETO    ETO  459   0.690   3.179   0.332 -0.0819  0.0641  0.3727
  445ETO    ETO  460   1.536   0.035   1.420 -0.2094  0.1161 -0.2147
  446ETO    ETO  461   3.233   1.156   1.982  0.0550  0.1194 -0.2720
  447ETO    ETO  462   4.755   4.413   3.697 -0.0249  0.0465 -0.3019
  448ETO    ETO  463   1.386   5.110   2.558  0.1295  0.1217 -0.0485
  449ETO    ETO  464   3.526   4.516   1.008  0.1145 -0.1658  0.0119
  450ETO    ETO  465   4.879   3.160   1.291 -0.1767  0.2980 -0.1734
  451ETO    ETO  466   1.050   0.700   2.292  0.1795 -0.0134  0.2241
  452ETO    ETO  467   2.549   3.869   4.036 -0.0882  0.1638  0.1654
  453ETO    ETO  468   2.225   0.943   0.473  0.0057  0.0614  0.4449
  454ETO    ETO  469   2.322   1.555   4.661 -0.1073 -0.3745 -0.1678
  455ETO    ETO  470   4.812   1.347   4.447  0.2947  0.1256 -0.0858
  456ETO    ETO  471   2.407   2.044   4.134 -0.1115  0.2116  0.0781
  457ETO    ETO  472   1.308   0.572   3.773  0.1262 -0.2868  0.0885
  458ETO    ETO  473   3.491   0.812   2.311  0.1616 -0.0729  0.2979
  459ETO    ETO  474   4.160   3.883   4.624  0.0866  0.2312  0.2362
  460ETO    ETO  475   0.004   0.101   3.589  0.0892 -0.0563  0.0855
  461ETO    ETO  476   0.588   1.797   2.039  0.2349 -0.3819  0.0435
  462ETO    ETO  477   0.383   3.911   2.598  0.2277 -0.2489  0.2060
  463ETO    ETO  478   2.929   0.080   3.384  0.4559  0.1995  0.0841
  464ETO    ETO  479   2.178   4.508   2.023  0.0099  0.0154 -0.3059
  465ETO    ETO  480   0.450   2.325   1.790  0.3650 -0.0509  0.0265
  466ETO    ETO  481   1.732   0.479   2.712  0.2140 -0.2563  0.4214
  467ETO    ETO  482   1.554   0.179   3.419 -0.1263 -0.2802 -0.1079
  468ETO    ETO  483   2.980   0.839   2.189 -0.3196 -0.1965  0.1116
  469ETO    ETO  484   2.333   2.430   3.400 -0.1524  0.1056  0.3038
  470ETO    ETO  485   2.145   3.019   0.225 -0.2339 -0.0138  0.1226
  471ETO    ETO  486   4.646   4.702   0.489  0.1407  0.2088 -0.0826
  472ETO    ETO  487   4.302   1.756   2.005 -0.0624  0.1073 -0.0860
  473ETO    ETO  488   3.286   1.344   4.180 -0.1854  0.1947 -0.3371
  474ETO    ETO  489   1.560   4.714   3.858 -0.3442 -0.1302  0.0696
  475ETO    ETO  490   4.288   2.565   0.892  0.4263 -0.0262 -0.0673
  476ETO    ETO  491   1.153   3.026   4.253 -0.1330  0.0627 -0.2345
  477ETO    ETO  492   4.720   4.431   3.109  0.2068  0.0776 -0.2033
  478ETO    ETO  493   0.768   3.723   4.203  0.0228 -0.0652 -0.0558
  479ETO    ETO  494   1.535   4.444   2.045  0.1131 -0.1063 -0.0660
  480ETO    ETO  495   3.258   4.436   2.159 -0.2722 -0.3449 -0.0252
  481ETO    ETO  496   3.044   2.663   4.408  0.0880  0.3626 -0.0536
  482ETO    ETO  497   0.374   3.079   2.606  0.1719 -0.2645 -0.1938
  483ETO    ETO  498   4.398   2.986   3.971  0.2776  0.0049 -0.1245
  484ETO    ETO  499   0.733   1.688   3.607 -0.0382  0.2938 -0.1091
  485ETO    ETO  500   0.529   4.391   4.627  0.1570  0.2057  0.1634
  486ETO    ETO  501   4.244   3.759   1.367  0.0187 -0.2103 -0.0825
  487ETO    ETO  502   2.761   1.515   4.933 -0.0513  0.2224  0.0890
  488ETO    ETO  503   1.830   0.781   0.420  0.2988 -0.2217 -0.0012
  489ETO    ETO  504   1.705   3.812   2.512 -0.1140  0.3756  0.1222
  490ETO    ETO  505   0.241   2.185   1.224  0.0144 -0.1476 -0.2407
  491ETO    ETO  506   1.619   0.469   2.251 -0.2121 -0.0186 -0.0414
  492ETO    ETO  507   2.172   4.996   1.848 -0.2264  0.2107  0.0773
  493ETO    ETO  508   0.419   0.468   0.158  0.2404 -0.2259  0.4815
  494ETO    ETO  509   0.001   2.757   3.707 -0.0911  0.4333 -0.0440
  495ETO    ETO  510   2.291   0.174   4.318 -0.3433  0.1190  0.5467
  496ETO    ETO  511   2.059   4.105   1.560 -0.0944 -0.1150  0.1247
  497ETO    ETO  512   4.008   3.649   3.485 -0.1961 -0.0853 -0.0118
  498ETO    ETO  513   2.570   4.224   0.138 -0.3678 -0.1743 -0.0623
  499ETO    ETO  514   2.817   4.535   1.485 -0.1394 -0.1833  0.2073
  500ETO    ETO  515   2.219   1.638   0.818 -0.1351 -0.1116 -0.1337
  501ETO    ETO  516   2.904   4.162   5.017 -0.0400 -0.1334 -0.0766
  502ETO    ETO  517   0.754   0.335   1.404 -0.0275 -0.1918  0.0993
  503ETO    ETO  518   0.888   4.946   0.275  0.4301 -0.0905  0.0543
  504ETO    ETO  519   2.043   4.741   4.651  0.2893  0.0052 -0.0726
  505ETO    ETO  520   1.918   2.251   4.905  0.1132 -0.0260 -0.1567
  506ETO    ETO  521   2.889   4.275   2.947  0.2387  0.1634  0.3257
  507ETO    ETO  522   4.275   3.054   2.389 -0.1655 -0.0834 -0.2192
  508ETO    ETO  523   4.061   4.011   2.038 -0.1187 -0.2671  0.0678
  509ETO    ETO  524   1.639   1.597   0.757  0.0557  0.1024 -0.3912
  510ETO    ETO  525   1.562   3.628   2.915 -0.2032 -0.3772  0.2795
  511ETO    ETO  526   5.047   4.392   3.402 -0.3582  0.4865 -0.3559
  512ETO    ETO  527   4.309   2.179   1.746  0.0271  0.1593 -0.0800
  513ETO    ETO  528   1.400   4.022   2.977 -0.2945  0.0822  0.1402
  514ETO    ETO  529   3.993   4.255   4.822 -0.1505  0.0688  0.1297
  515ETO    ETO  530   2.933   2.330   1.480 -0.2195 -0.0003  0.3110
  516ETO    ETO  531   1.475   5.000   4.198 -0.0546  0.0596  0.2167
  517ETO    ETO  532   0.096   2.135   3.227  0.1072 -0.0266  0.3405
  518ETO    ETO  533   0.796   2.198   2.021 -0.2162  0.0771  0.1105
  519ETO    ETO  534   1.581   0.687   0.755  0.0509  0.0528  0.0025
  520ETO    ETO  535   5.025   0.611   2.756 -0.1802 -0.3452 -0.1197
  521ETO    ETO  536   2.238   4.002   0.300 -0.4118  0.1760  0.2118
  522ETO    ETO  537   4.689   0.826   3.795  0.1504 -0.0487 -0.2024
  523ETO    ETO  538   3.223   4.024   2.787  0.1296 -0.1966  0.1015
  524ETO    ETO  539   2.515   2.345   1.995  0.3816  0.1898 -0.1829
  525ETO    ETO  540   4.559   1.770   0.718 -0.0555 -0.3726 -0.2050
  526ETO    ETO  541   0.728   4.966   1.323 -0.2547 -0.3609 -0.1575
  527ETO    ETO  542   2.269   0.541   1.323  0.3390  0.2118 -0.4171
  528ETO    ETO  543   4.291   3.746   5.006 -0.4388 -0.1401 -0.0460
  529ETO    ETO  544   4.145   0.943   4.526 -0.1688  0.2433 -0.5024
  530ETO    ETO  545   1.746   4.050   1.259  0.1105 -0.0623 -0.0300
  531ETO    ETO  546   1.810   1.308   2.409 -0.1154 -0.0391  0.1057
  532ETO    ETO  547   5.066   0.503   5.053  0.2298  0.3481  0.0065
  533ETO    ETO  548   3.382   5.076   3.724  0.2644 -0.0058  0.2090
  534ETO    ETO  549   1.243   4.469   5.065 -0.4249 -0.0615 -0.3457
  535ETO    ETO  550   3.059   1.207   0.072 -0.1516 -0.1420 -0.1799
  536ETO    ETO  551   3.684   3.340   4.517 -0.0870 -0.1268 -0.2346
  537ETO    ETO  552   2.247   4.801   5.018  0.3450  0.3511  0.4358
  538ETO    ETO  553   1.101   4.306   2.213 -0.1401  0.0996  0.0796
  539ETO    ETO  554   2.320   3.041   2.109 -0.0965  0.1642  0.0414
  540ETO    ETO  555   0.683   4.213   1.845 -0.1416 -0.0944  0.2378
  541ETO    ETO  556   2.741   2.761   0.384  0.0606 -0.1230  0.5403
  542ETO    ETO  557   4.078   3.410   1.632 -0.0818 -0.2553  0.2862
  543ETO    ETO  558   2.299   3.617   0.944  0.0998  0.0717 -0.1046
  544ETO    ETO  559   2.122   2.160   1.254  0.0336  0.0444 -0.0032
  545ETO    ETO  560   4.618   3.874   1.491  0.3313 -0.1693  0.1656
  546ETO    ETO  561   4.375   0.477   2.715 -0.0152 -0.1949 -0.1651
  547ETO    ETO  562   2.611   1.057   2.052  0.2408 -0.3837  0.0005
  548ETO    ETO  563   2.780   3.148   0.063  0.3454  0.0179 -0.1839
  549ETO    ETO  564   0.368   4.674   0.449 -0.3112 -0.0857 -0.2521
  550ETO    ETO  565   2.959   4.478   4.273  0.4429  0.0451  0.0361
  551ETO    ETO  566   0.296   0.630   1.280 -0.1673 -0.3295  0.0781
  552ETO    ETO  567   3.219   2.262   4.027 -0.0591  0.0500 -0.3096
  553ETO    ETO  568   0.511   1.434   5.023 -0.1304 -0.1149 -0.0798
  554ETO    ETO  569   0.707   1.832   2.479  0.1862  0.1450  0.1332
  555ETO    ETO  570   0.737   0.347   0.520 -0.1739  0.2681 -0.1321
  556ETO    ETO  571   2.475   3.073   0.522 -0.0701  0.1515 -0.1811
  557ETO    ETO  572   2.398   1.060   3.348  0.3494  0.2267 -0.1891
  558ETO    ETO  573   3.786   1.347   4.298  0.1394  0.0321 -0.1651
  559ETO    ETO  574   3.540   0.864   2.878 -0.1657 -0.3064  0.0368
  560ETO    ETO  575   0.192   4.706   2.772  0.0147 -0.0268 -0.0731
  561ETO    ETO  576   3.484   1.093   0.712  0.1086 -0.2432 -0.1734
  562ETO    ETO  577   3.908   2.175   2.772  0.5090 -0.1311 -0.3202
  563ETO    ETO  578   4.655   4.622   1.032 -0.1255 -0.1161  0.0934
  564ETO    ETO  579   0.041   1.303   1.793 -0.0039 -0.0187 -0.4497
  565ETO    ETO  580   1.658   2.677   2.626  0.0731  0.1747 -0.0941
  566ETO    ETO  581   3.123   3.341   2.895 -0.2712 -0.1402 -0.2431
  567ETO    ETO  582   3.667   1.843   2.902  0.0297 -0.0008 -0.0158
  568ETO    ETO  583   4.119   3.035   2.818  0.0102 -0.1176  0.3125
  569ETO    ETO  584   1.414   3.977   2.128  0.1612  0.3476  0.2602
  570ETO    ETO  585   4.264   3.817   3.070 -0.0617 -0.1060 -0.2004
  571ETO    ETO  586   5.047   1.808   1.275 -0.0578 -0.0404 -0.0633
  572ETO    ETO  587   1.819   3.838   2.047  0.4604  0.2075  0.1410
  573ETO    ETO  588   2.309   3.116   4.526 -0.4230  0.2870 -0.4102
  574ETO    ETO  589   0.376   2.001   2.690 -0.1594  0.3751 -0.0729
  575ETO    ETO  590   1.204   0.216   4.197 -0.1458  0.3379  0.0403
  576ETO    ETO  591   0.247   1.611   3.292  0.0689  0.0119  0.0193
  577ETO    ETO  592   1.593   3.970   4.171  0.1839  0.3588 -0.1236
  578ETO    ETO  593   0.836   0.309   1.946  0.0280 -0.3283 -0.3465
  579ETO    ETO  594   4.593   3.695   1.122 -0.2734  0.0875  0.1311
  580ETO    ETO  595   3.491   3.354   1.719  0.0585  0.1429  0.0047
  581ETO    ETO  596   4.858   3.832   4.183 -0.2051 -0.2963 -0.0957
  582ETO    ETO  597   1.540   1.994   4.608 -0.1747 -0.1690 -0.3536
  583ETO    ETO  598   3.572   0.448   0.445  0.1338  0.2841  0.1433
  584ETO    ETO  599   1.863   1.239   0.271 -0.1150  0.1656  0.2602
  585ETO    ETO  600   2.540   4.906   0.459 -0.0323 -0.2899 -0.0145
  586ETO    ETO  601   4.893   2.698   2.029 -0.0824 -0.1703 -0.0880
  587ETO    ETO  602   2.872   2.943   4.844 -0.0583 -0.3775 -0.0801
  588ETO    ETO  603   1.848   1.763   1.118 -0.0120  0.0625  0.0679
  589ETO    ETO  604   1.260   0.253   0.286 -0.1292  0.1032  0.0041
  590ETO    ETO  605   2.172   2.588   3.750 -0.2728  0.1330 -0.1627
  591ETO    ETO  606   1.497   0.646   3.152 -0.1170  0.2110 -0.1415
  592ETO    ETO  607   2.777   2.330   2.356 -0.0325 -0.2455  0.0964
  593ETO    ETO  608   1.867   2.987   1.304 -0.0419  0.0694 -0.0319
  594ETO    ETO  609   1.247   1.462   3.183  0.4015  0.0937 -0.0822
  595ETO    ETO  610   2.382   3.791   1.451  0.1926  0.0709  0.0586
  596ETO    ETO  611   3.709   1.865   2.045 -0.2079 -0.3854  0.1968
  597ETO    ETO  612   0.342   2.612   2.534 -0.2269 -0.2784  0.0807
  598ETO    ETO  613   0.216   0.985   3.658  0.4148 -0.2025 -0.1684
  599ETO    ETO  614   1.397   4.702   2.847 -0.4418  0.0344  0.1071
  600ETO    ETO  615   4.667   3.765   0.273  0.0916 -0.1364  0.3994
  601ETO    ETO  616   0.084   4.477   4.635 -0.2380 -0.2513  0.0817
  602ETO    ETO  617   3.251   1.654   0.140 -0.0438  0.0140 -0.0157
  603ETO    ETO  618   2.693   5.003   0.935 -0.0425 -0.1660  0.1196
  604ETO    ETO  619   1.664   3.526   3.972  0.1755  0.1148 -0.0912
  605ETO    ETO  620   0.605   3.827   0.275  0.0600  0.0668  0.1091
  606ETO    ETO  621   1.593   2.149   4.201 -0.0364 -0.3558  0.2069
  607ETO    ETO  622   0.747   4.151   2.537  0.0118 -0.3598 -0.0583
  608ETO    ETO  623   0.152   3.021   0.960 -0.4051 -0.0750 -0.1844
  609ETO    ETO  624   4.062   4.711   4.644 -0.2845  0.0107 -0.1097
  610ETO    ETO  625   4.317   0.118   3.797 -0.0804  0.0289 -0.1172
  611ETO    ETO  626   0.192   0.952   2.747  0.2264 -0.1512  0.0576
  612ETO    ETO  627   0.272   3.706   2.155  0.2415 -0.2808 -0.1352
  613ETO    ETO  628   0.655   3.900   1.120  0.0742 -0.0937  0.0297
  614ETO    ETO  629   0.107   0.034   1.887 -0.4187  0.0675  0.2900
  615ETO    ETO  630   3.199   3.127   1.581 -0.0244 -0.1911 -0.0801
  616ETO    ETO  631   3.239   4.522   5.021 -0.0006 -0.0483 -0.4696
  617ETO    ETO  632   2.810   2.509   3.257 -0.1823 -0.0999 -0.1457
  618ETO    ETO  633   1.624   4.364   3.003  0.0469 -0.0767  0.1576
  619ETO    ETO  634   4.622   0.518   2.382 -0.2396 -0.3750 -0.1049
  620ETO    ETO  635   0.734   2.378   1.393 -0.0205 -0.1483 -0.0592
  621ETO    ETO  636   3.243   1.124   3.781  0.2886  0.0071 -0.1763
  622ETO    ETO  637   4.716   3.102   2.136 -0.1081 -0.2561 -0.1443
  623ETO    ETO  638   4.658   1.798   1.098  0.0728 -0.3731  0.1024
  624ETO    ETO  639   1.156   4.086   1.218  0.0040  0.2329  0.4675
  625ETO    ETO  640   3.880   3.382   2.955 -0.2375 -0.1349  0.0414
  626ETO    ETO  641   4.904   1.334   3.648  0.1142 -0.2632 -0.2711
  627ETO    ETO  642   3.283   3.896   4.727  0.0574  0.0814 -0.0446
  628ETO    ETO  643   0.299   2.838   0.523  0.0505 -0.0110  0.1410
  629ETO    ETO  644   2.986   3.591   4.615 -0.0564  0.0093 -0.5146
  630ETO    ETO  645   3.420   1.944   3.427 -0.1541  0.3015  0.0408
  631ETO    ETO  646   1.979   3.118   4.212  0.1137 -0.3494 -0.0139
  632ETO    ETO  647   4.592   1.045   4.233  0.1901  0.0634  0.1177
  633ETO    ETO  648   4.811   3.037   3.849 -0.1786  0.2268 -0.0008
  634ETO    ETO  649   1.463   1.599   2.267 -0.2668  0.1758  0.1547
  635ETO    ETO  650   2.744   5.068   1.609  0.0531 -0.3628 -0.2812
  636ETO    ETO  651   1.032   2.325   1.048 -0.1189  0.0420 -0.2356
  637ETO    ETO  652   4.430   2.880   1.128  0.2436 -0.1897  0.0601
  638ETO    ETO  653   0.869   0.627   0.091  0.1199  0.1197 -0.4088
  639ETO    ETO  654   1.803   2.690   4.265 -0.0300  0.0079  0.2961
  640ETO    ETO  655   1.221   0.602   1.856 -0.0143  0.0107 -0.2440
  641ETO    ETO  656   2.520   1.832   5.083  0.1690  0.1351 -0.0462
  642ETO    ETO  657   1.432   1.423   2.771  0.0879  0.2926  0.4360
  643ETO    ETO  658   4.865   4.779   1.764  0.1831  0.0898  0.0484
  644ETO    ETO  659   3.554   1.452   3.009 -0.1739 -0.0740 -0.1078
  645ETO    ETO  660   2.210   4.611   2.790 -0.3794 -0.0051 -0.1175
  646ETO    ETO  661   1.770   0.826   4.477  0.2891 -0.0552 -0.2824
  647ETO    ETO  662   1.910   1.677   0.398 -0.2349 -0.0695  0.1004
  648ETO    ETO  663   4.978   3.851   3.569 -0.3503 -0.0318 -0.1356
  649ETO    ETO  664   1.834   0.297   0.708 -0.3467 -0.0486  0.1082
  650ETO    ETO  665   2.402   0.250   1.630  0.2611 -0.1850  0.2650
  651ETO    ETO  666   2.487   2.348   3.011  0.2638 -0.0384 -0.2432
  652ETO    ETO  667   2.715   3.077   0.994  0.0567  0.0267  0.2037
  653ETO    ETO  668   2.910   2.554   0.029 -0.0386 -0.2576  0.1500
  654ETO    ETO  669   4.908   0.355   3.075  0.0282  0.5044  0.3642
  655ETO    ETO  670   2.435   2.818   1.723 -0.0832  0.2842  0.0904
  656ETO    ETO  671   2.119   0.214   1.075  0.0421 -0.0027 -0.4908
  657ETO    ETO  672   0.382   2.639   3.876 -0.1710  0.1464 -0.3514
  658ETO    ETO  673   0.169   4.899   3.894 -0.2630  0.1964  0.0264
  659ETO    ETO  674   2.919   0.953   4.813  0.3763 -0.0206 -0.2924
  660ETO    ETO  675   4.823   4.939   3.974  0.3931 -0.2735 -0.5247
  661ETO    ETO  676   1.281   3.355   1.871  0.2186  0.0676 -0.0325
  662ETO    ETO  677   2.435   4.432   0.588  0.0796 -0.2138 -0.0476
  663ETO    ETO  678   3.121   0.492   3.643  0.0386 -0.0392 -0.3722
  664ETO    ETO  679   3.521   5.027   0.093  0.3393  0.3356 -0.0581
  665ETO    ETO  680   2.217   4.889   0.983 -0.1369  0.2755  0.0782
  666ETO    ETO  681   2.509   4.508   2.304 -0.1103  0.0467  0.1018
  667ETO    ETO  682   2.108   2.109   0.349 -0.3476 -0.0585  0.2716
  668ETO    ETO  683   3.375   0.615   0.820 -0.0804  0.1270 -0.1883
  669ETO    ETO  684   0.350   1.594   2.551 -0.0577  0.0677  0.1869
  670ETO    ETO  685   2.597   3.964   0.835 -0.4280  0.1368 -0.0032
  671ETO    ETO  686   1.103   4.825   3.195 -0.0357  0.2602 -0.1223
  672ETO    ETO  687   0.330   5.053   0.086  0.2730  0.0600 -0.0647
  673ETO    ETO  688   2.437   0.753   0.814  0.3208  0.3019 -0.2566
  674ETO    ETO  689   4.808   2.886   4.941 -0.1006 -0.3193 -0.0860
  675ETO    ETO  690   2.723   3.197   3.023 -0.1504  0.3069  0.1520
  676ETO    ETO  691   4.441   2.564   2.043 -0.2958  0.1533  0.1182
  677ETO    ETO  692   1.373   4.286   3.766 -0.2419  0.0966  0.1388
  678ETO    ETO  693   0.455   4.877   4.267 -0.0103 -0.4153  0.2856
  679ETO    ETO  694   1.003   3.813   1.883 -0.0169  0.1155 -0.0285
  680ETO    ETO  695   0.922   3.295   3.425  0.0506  0.2855  0.0801
  681ETO    ETO  696   1.833   0.002   2.568  0.1234 -0.2407  0.3113
  682ETO    ETO  697   0.798   0.770   3.943 -0.0513  0.0740  0.2117
  683ETO    ETO  698   2.612   2.058   1.241  0.0157  0.0428  0.2041
  684ETO    ETO  699   2.340   2.009   4.766 -0.1980  0.0493 -0.1545
  685ETO    ETO  700   2.863   3.764   3.739 -0.3837  0.0319  0.3458
  686ETO    ETO  701   0.622   4.715   3.886 -0.2405 -0.0434 -0.0479
  687ETO    ETO  702   0.846   3.971   1.466 -0.1046  0.0495  0.0166
  688ETO    ETO  703   1.183   4.355   2.691  0.1311 -0.1241  0.0847
  689ETO    ETO  704   2.830   3.393   3.550 -0.4423 -0.1489 -0.0982
  690ETO    ETO  705   0.121   2.863   4.193 -0.3699 -0.0743  0.0823
  691ETO    ETO  706   4.061   1.723   4.802  0.0001 -0.1557  0.1705
  692ETO    ETO  707   3.712   2.225   4.888  0.2198  0.0902  0.4951
  693ETO    ETO  708   1.314   4.988   0.079 -0.2242  0.1244 -0.1256
  694ETO    ETO  709   1.885   1.716   1.572  0.0327 -0.1421 -0.1261
  695ETO    ETO  710   4.467   3.416   1.461  0.0574  0.1352  0.0558
  696ETO    ETO  711   4.377   4.340   4.734 -0.0926 -0.0105  0.0207
  697ETO    ETO  712   2.313   4.606   1.336 -0.1234 -0.2101 -0.1427
  698ETO    ETO  713   3.892   1.039   3.973 -0.4047 -0.2370 -0.1996
  699ETO    ETO  714   4.952   2.175   1.074 -0.3225 -0.1950  0.0138
  700ETO    ETO  715   3.499   2.310   2.860 -0.2105  0.4205 -0.0484
  701ETO    ETO  716   1.832   4.306   3.897 -0.0118 -0.1552 -0.3479
  702ETO    ETO  717   2.498   0.720   1.788 -0.3315 -0.0986 -0.1928
  703ETO    ETO  718   3.250   2.356   3.246 -0.0042  0.3012 -0.0934
  704ETO    ETO  719   0.657   0.766   2.092  0.2598 -0.1998 -0.0303
  705ETO    ETO  720   3.582   4.164   2.861 -0.0431  0.0236  0.0908
  706ETO    ETO  721   2.329   1.748   1.357 -0.4171  0.1211  0.0968
  707ETO    ETO  722   4.054   1.611   4.437  0.0238 -0.4784  0.3107
  708ETO    ETO  723   5.111   5.114   2.808  0.6842 -0.1027 -0.2181
  709ETO    ETO  724   3.290   5.077   3.077  0.0189 -0.1453 -0.2101
  710ETO    ETO  725   3.025   1.978   4.311  0.0810 -0.1665 -0.2183
  711ETO    ETO  726   2.189   1.142   1.836 -0.0831 -0.2219 -0.1235
  712ETO    ETO  727   3.310   4.916   0.821 -0.0027  0.0228  0.0012
  713ETO    ETO  728   2.698   0.603   2.807 -0.3902 -0.3515  0.1583
  714ETO    ETO  729   1.654   4.652   4.955  0.1067 -0.0093 -0.0227
  715ETO    ETO  730   0.384   3.621   5.010 -0.0140  0.1809  0.0867
  716ETO    ETO  731   1.584   3.457   0.051 -0.2747 -0.2256  0.2438
  717ETO    ETO  732   0.049   1.083   1.391 -0.0886 -0.1447  0.0635
  718ETO    ETO  733   0.498   3.503   2.540  0.3671  0.1295  0.2443
  719ETO    ETO  734   1.620   0.893   2.612  0.2506 -0.1734  0.2158
  720ETO    ETO  735   2.288   1.047   2.599 -0.1581  0.5645  0.0449
  721ETO    ETO  736   3.865   1.317   0.517 -0.1271  0.2845 -0.1474
  722ETO    ETO  737   1.691   1.116   0.737 -0.0782 -0.0340  0.0941
  723ETO    ETO  738   2.691   4.120   4.591 -0.1778 -0.2425 -0.0754
  724ETO    ETO  739   0.856   2.483   4.065  0.2920  0.1601  0.1229
  725ETO    ETO  740   2.998   4.888   3.736  0.1555 -0.2454  0.2932
  726ETO    ETO  741   3.258   4.436   0.715 -0.2016  0.0015 -0.0151
  727ETO    ETO  742   3.383   2.808   2.779  0.1856 -0.2546 -0.0304
  728ETO    ETO  743   2.228   1.400   5.045 -0.0512 -0.0820 -0.1618
  729ETO    ETO  744   3.852   4.498   3.441 -0.2009  0.2141 -0.3249
  730ETO    ETO  745   0.349   0.161   4.478 -0.0480  0.1187 -0.0968
  731ETO    ETO  746   2.983   4.255   0.396  0.1323  0.3853  0.1518
  732ETO    ETO  747   1.924   4.779   1.236  0.2839  0.4850 -0.1234
  733ETO    ETO  748   3.686   4.947   3.209 -0.1808 -0.0121  0.1039
  734ETO    ETO  749   2.167   0.992   1.160 -0.1570  0.1044  0.3533
  735ETO    ETO  750   1.617   4.439   4.346  0.0213 -0.3368  0.0314
  736ETO    ETO  751   1.644   0.427   0.205 -0.1187 -0.3855 -0.2051
  737ETO    ETO  752   3.627   4.773   0.502  0.0507 -0.1314  0.3575
  738ETO    ETO  753   0.468   1.333   3.629  0.0183 -0.2372  0.2662
  739ETO    ETO  754   3.985   4.720   3.009 -0.0367 -0.3038 -0.3797
  740ETO    ETO  755   2.813   2.654   1.861 -0.3863  0.1855  0.1410
  741ETO    ETO  756   4.278   1.036   3.724 -0.0194  0.2338  0.0880
  742ETO    ETO  757   2.097   1.026   2.235 -0.0571 -0.1322  0.5705
  743ETO    ETO  758   3.341   4.019   0.025  0.1729 -0.1425 -0.1078
  744ETO    ETO  759   3.223   3.592   3.947 -0.0739  0.0800 -0.1670
  745ETO    ETO  760   2.146   3.936   3.799  0.1454 -0.2261 -0.0481
  746ETO    ETO  761   3.468   2.863   1.818 -0.3587  0.0294 -0.0868
  747ETO    ETO  762   3.024   0.213   3.951  0.4521  0.0018 -0.4616
  748ETO    ETO  763   0.148   1.838   1.788 -0.0823 -0.0130  0.0722
  749ETO    ETO  764   1.918   4.047   2.851  0.1751 -0.1373 -0.4415
  750ETO    ETO  765   3.139   0.586   2.797  0.1183 -0.3337 -0.1439
  751ETO    ETO  766   4.478   2.272   4.011 -0.0741  0.0816  0.3620
  752ETO    ETO  767   3.402   2.740   0.758 -0.1098  0.0793  0.0018
  753ETO    ETO  768   1.854   2.430   3.488  0.1786 -0.1676  0.1081
  754ETO    ETO  769   4.928   1.498   2.622 -0.4849  0.1931  0.2216
  755ETO    ETO  770   0.817   1.303   3.344 -0.0523 -0.4322 -0.1278
  756ETO    ETO  771   4.262   1.625   2.911  0.2859  0.1803  0.0297
  757ETO    ETO  772   3.722   2.966   0.312  0.3637  0.1739  0.1986
  758ETO    ETO  773   2.185   0.619   2.680  0.2799 -0.0359 -0.0760
  759ETO    ETO  774   4.733   4.312   4.230 -0.3432  0.0473  0.1771
  760ETO    ETO  775   3.351   0.279   3.334 -0.2729  0.3107  0.0265
  761ETO    ETO  776   3.196   0.704   4.012  0.0812  0.1302  0.0920
  762ETO    ETO  777   0.870   0.890   0.418  0.1498  0.2713  0.0512
  763ETO    ETO  778   3.025   2.455   3.652 -0.1503  0.0621  0.4137
  764ETO    ETO  779   4.491   2.368   2.526 -0.0395  0.4304  0.4720
  765ETO    ETO  780   1.591   3.969   1.673 -0.3015  0.1088 -0.0393
  766ETO    ETO  781   1.641   2.579   1.668 -0.0664  0.0640  0.1002
  767ETO    ETO  782   0.617   2.307   5.065 -0.2482 -0.0572 -0.2122
  768ETO    ETO  783   3.471   1.315   1.311  0.1959 -0.1262 -0.1202
  769ETO    ETO  784   1.808   3.080   2.556 -0.0190  0.0307 -0.2783
  770ETO    ETO  785   2.596   0.864   1.225 -0.1726  0.1188  0.2042
  771ETO    ETO  786   0.952   1.222   1.622 -0.1940 -0.0511  0.0013
  772ETO    ETO  787   3.885   0.366   0.108 -0.0561 -0.1078  0.3053
  773ETO    ETO  788   2.267   5.016   2.997 -0.3985 -0.3411  0.2005
  774ETO    ETO  789   3.787   0.930   0.069 -0.2684  0.0956  0.2353
  775ETO    ETO  790   2.887   4.913   4.193  0.0113 -0.0492 -0.1815
  776ETO    ETO  791   0.280   3.893   1.724  0.0712 -0.2647 -0.0617
  777ETO    ETO  792   2.627   2.030   3.583 -0.0820 -0.3211  0.2623
  778ETO    ETO  793   0.776   1.591   4.769 -0.0969  0.2270  0.0564
  779ETO    ETO  794   4.122   2.539   3.983  0.1251  0.3829 -0.1332
  780ETO    ETO  795   2.482   4.213   1.489  0.3768 -0.0338  0.2769
  781ETO    ETO  796   3.385   3.795   1.559 -0.0984 -0.3193 -0.0719
  782ETO    ETO  797   2.946   4.845   2.383  0.3748 -0.1416 -0.0290
  783ETO    ETO  798   3.119   1.465   1.634  0.1327 -0.0089  0.4056
  784ETO    ETO  799   4.692   0.323   4.226  0.1699  0.0194 -0.1340
  785ETO    ETO  800   0.794   1.239   3.923 -0.0833  0.1165 -0.1288
  786ETO    ETO  801   4.193   1.757   0.951  0.2156  0.3690 -0.3546
  787ETO    ETO  802   0.779   4.517   1.479 -0.1763  0.1914  0.2843
  788ETO    ETO  803   2.875   1.133   3.478  0.0317 -0.1133 -0.0870
  789ETO    ETO  804   1.905   3.379   4.735  0.3095  0.1032  0.0082
  790ETO    ETO  805   3.984   2.778   3.476 -0.4549 -0.3591 -0.1100
  791ETO    ETO  806   2.750   1.245   0.867  0.2252 -0.0437 -0.0224
  792ETO    ETO  807   2.539   1.338   3.668 -0.2210 -0.5016  0.0709
  793ETO    ETO  808   4.796   1.009   2.729  0.1642 -0.2646  0.1087
  794ETO    ETO  809   0.410   1.780   1.191 -0.0977  0.2152 -0.0661
  795ETO    ETO  810   2.389   2.306   2.592 -0.3335 -0.2664  0.0351
  796ETO    ETO  811   0.188   0.262   3.133 -0.0015 -0.0420 -0.6027
  797ETO    ETO  812   2.053   4.315   0.782  0.2115  0.0926  0.0730
  798ETO    ETO  813   4.467   4.935   2.443  0.2924 -0.2005 -0.3628
  799ETO    ETO  814   4.418   1.722   0.129 -0.2697  0.0195  0.3693
  800ETO    ETO  815   1.764   2.129   1.578 -0.1885  0.3565 -0.2871
  801ETO    ETO  816   1.951   1.307   1.371  0.0936  0.0511 -0.0777
  802ETO    ETO  817   0.529   0.187   2.698 -0.2986 -0.1120  0.1133
  803ETO    ETO  818   4.134   4.537   1.639  0.2987 -0.0174 -0.0020
  804ETO    ETO  819   5.029   0.757   1.771 -0.1669 -0.0106 -0.0916
  805ETO    ETO  820   2.616   4.451   4.881 -0.2227 -0.2558 -0.5354
  806ETO    ETO  821   5.027   3.980   1.550 -0.3545 -0.3984 -0.0209
  807ETO    ETO  822   4.615   3.851   2.790  0.4995 -0.0513  0.0628
  808ETO    ETO  823   3.861   2.327   3.648 -0.1369  0.0096  0.2229
  809ETO    ETO  824   2.261   5.039   1.406  0.3297 -0.3222 -0.1575
  810ETO    ETO  825   3.453   4.261   4.349  0.0751  0.3881  0.2539
  811ETO    ETO  826   3.290   1.947   3.000  0.2719  0.0199  0.4124
  812ETO    ETO  827   0.640   0.366   4.086 -0.0896  0.0480 -0.2454
  813ETO    ETO  828   1.494   4.138   0.206  0.1131  0.1933 -0.2611
  814ETO    ETO  829   4.662   3.467   1.839 -0.3644  0.3677  0.0095
  815ETO    ETO  830   0.869   3.475   1.543  0.0354 -0.0109  0.2190
  816ETO    ETO  831   0.080   0.331   0.430  0.1461 -0.3578  0.0064
  817ETO    ETO  832   0.796   0.138   4.525 -0.2071  0.0420  0.3230
  818ETO    ETO  833   4.604   1.614   3.702  0.1303  0.2360  0.1201
  819ETO    ETO  834   2.083   1.983   2.546 -0.1397 -0.0401  0.0099
  820ETO    ETO  835   1.171   4.755   2.099  0.0185  0.2594 -0.1511
  821ETO    ETO  836   0.482   4.022   4.791  0.0450 -0.3144  0.1146
  822ETO    ETO  837   3.127   3.753   3.378 -0.5209  0.0394  0.0446
  823ETO    ETO  838   4.247   1.894   3.853 -0.2398 -0.2486 -0.0523
  824ETO    ETO  839   0.862   4.490   0.695  0.5055  0.2143  0.1594
  825ETO    ETO  840   3.879   1.881   3.556  0.2471 -0.1706  0.1405
  826ETO    ETO  841   0.085   5.019   0.481 -0.0814  0.2607 -0.1565
  827ETO    ETO  842   4.722   0.942   2.182 -0.0512  0.1088 -0.1576
  828ETO    ETO  843   3.445   1.856   4.844 -0.1046 -0.0139  0.2486
  829ETO    ETO  844   1.291   0.661   4.618  0.0043  0.2098  0.4955
  830ETO    ETO  845   0.284   4.474   4.118  0.3685  0.1070 -0.4779
  831ETO    ETO  846   4.397   4.754   3.796  0.1968 -0.4591 -0.2199
  832ETO    ETO  847   3.686   1.059   3.479  0.2878  0.4915  0.1345
  833ETO    ETO  848   0.257   3.692   4.411 -0.2409  0.0889 -0.2290
  834ETO    ETO  849   3.664   2.378   0.763 -0.1165 -0.2782  0.0720
  835ETO    ETO  850   4.710   3.316   0.268 -0.1369  0.1393  0.1309
  836ETO    ETO  851   4.042   1.112   2.945 -0.1697  0.0433  0.0037
  837ETO    ETO  852   2.138   0.501   4.569  0.2656  0.2676  0.1648
  838ETO    ETO  853   4.563   3.918   2.121  0.1353  0.1211 -0.1112
  839ETO    ETO  854   4.825   1.444   3.156 -0.0196 -0.3296 -0.0204
  840ETO    ETO  855   4.694   1.408   0.427  0.1849  0.0733 -0.1031
  841ETO    ETO  856   3.469   0.601   1.460 -0.0340  0.2584  0.0813
  842ETO    ETO  857   4.010   0.106   2.908  0.3259 -0.5501  0.1919
  843ETO    ETO  858   0.559   3.969   3.067  0.0904 -0.1328  0.2708
  844ETO    ETO  859   0.526   4.288   0.540  0.3000  0.2701  0.1416
  845ETO    ETO  860   1.931   3.837   0.693 -0.2887 -0.0769 -0.0105
  846ETO    ETO  861   3.873   1.372   1.725  0.0409  0.0210 -0.0723
  847ETO    ETO  862   1.340   4.060   3.399  0.1075 -0.1416 -0.4334
  848ETO    ETO  863   1.147   3.384   3.011  0.0866 -0.1584 -0.1511
  849ETO    ETO  864   3.575   0.347   2.895  0.1401  0.1090  0.1081
  850ETO    ETO  865   2.626   0.328   0.836 -0.2264  0.1854 -0.1307
  851ETO    ETO  866   3.544   1.638   1.691  0.4551 -0.0270 -0.1181
  852ETO    ETO  867   2.721   1.983   2.140  0.1172  0.0200  0.3812
  853ETO    ETO  868   0.795   3.439   5.099 -0.0336 -0.4667  0.1686
  854ETO    ETO  869   0.764   4.325   1.093 -0.3004  0.3291 -0.2075
  855ETO    ETO  870   2.000   3.704   1.271 -0.1146 -0.3785 -0.2741
  856ETO    ETO  871   1.574   1.236   3.193 -0.1372 -0.1254  0.0513
  857ETO    ETO  872   0.151   0.337   1.529  0.1948 -0.5150  0.3794
  858ETO    ETO  873   2.655   3.588   4.348 -0.0439 -0.1284 -0.1010
  859ETO    ETO  874   1.904   0.478   3.360  0.0353 -0.0350  0.0551
  860ETO    ETO  875   3.083   3.683   5.087 -0.1672  0.1639  0.0902
  861ETO    ETO  876   3.316   3.051   4.231  0.1663  0.2484  0.1580
  862ETO    ETO  877   1.551   2.697   4.947  0.1269  0.3031  0.7421
  863ETO    ETO  878   3.566   0.719   3.745  0.0176  0.2140 -0.0120
  864ETO    ETO  879   3.411   2.654   4.085  0.6676  0.1623 -0.1994
  865ETO    ETO  880   2.657   3.877   2.306 -0.3190 -0.2043  0.4478
  866ETO    ETO  881   3.415   0.074   4.761 -0.1402 -0.1301 -0.0756
  867ETO    ETO  882   4.352   0.664   3.508  0.1965  0.0348  0.0539
  868ETO    ETO  883   3.424   1.404   3.467 -0.0505  0.4717  0.2483
  869ETO    ETO  884   3.871   1.214   1.243 -0.0646  0.2441  0.1693
  870ETO    ETO  885   3.353   4.646   4.065 -0.2903 -0.0794 -0.2011
  871ETO    ETO  886   2.063   2.361   2.274  0.2748 -0.1921  0.0402
  872ETO    ETO  887   0.546   0.858   3.300 -0.1073  0.3406  0.1639
  873ETO    ETO  888   2.270   0.627   3.484  0.1000 -0.0358 -0.2958
  874ETO    ETO  889   0.919   0.999   4.315 -0.3184  0.2417  0.1214
  875ETO    ETO  890   2.778   1.585   0.239 -0.0001 -0.1285  0.0562
  876ETO    ETO  891   1.924   1.797   4.810 -0.2002 -0.2065 -0.1845
  877ETO    ETO  892   0.800   4.935   0.883  0.3322  0.2074  0.3124
  878ETO    ETO  893   1.229   4.424   3.124 -0.3345 -0.1679  0.2859
  879ETO    ETO  894   1.232   4.255   1.773  0.3699  0.0323  0.0750
  880ETO    ETO  895   3.986   0.466   0.589  0.3156 -0.2871  0.2174
  881ETO    ETO  896   3.907   3.884   1.641 -0.5509 -0.0432 -0.5478
  882ETO    ETO  897   0.802   1.118   0.005 -0.2361  0.2916 -0.0428
  883ETO    ETO  898   4.194   4.083   3.467  0.2010  0.0767 -0.0486
  884ETO    ETO  899   3.644   1.004   1.746 -0.2617 -0.0966 -0.6836
  885ETO    ETO  900   1.315   1.084   2.410 -0.1148  0.0990 -0.0382
  886ETO    ETO  901   1.459   4.895   3.369  0.0705 -0.1263  0.1997
  887ETO    ETO  902   0.452   4.691   0.911 -0.0348  0.2600 -0.0183
  888ETO    ETO  903   3.442   3.698   4.348  0.0614 -0.0598 -0.2224
  889ETO    ETO  904   1.399   0.546   1.414 -0.2705 -0.2506  0.0999
  890ETO    ETO  905   1.883   0.831   1.586  0.2085  0.3494 -0.0518
  891ETO    ETO  906   4.965   4.436   0.784 -0.0825 -0.0742  0.0006
  892ETO    ETO  907   1.661   3.898   4.992  0.0204 -0.0399 -0.4576
  893ETO    ETO  908   1.213   2.163   3.064  0.1174  0.0404  0.0353
  894ETO    ETO  909   1.253   1.212   5.112 -0.0313 -0.0683  0.1060
  895ETO    ETO  910   2.964   1.903   0.546  0.3988  0.1907 -0.0083
  896ETO    ETO  911   2.946   0.096   2.702 -0.0609 -0.1544 -0.2125
  897ETO    ETO  912   3.921   3.838   0.700  0.2086 -0.0324  0.0303
  898ETO    ETO  913   4.474   2.105   0.378 -0.0099  0.0779 -0.1674
  899ETO    ETO  914   2.318   0.118   0.144  0.2167  0.1872  0.0861
  900ETO    ETO  915   0.746   1.384   2.455 -0.3541  0.1432  0.2350
  901ETO    ETO  916   0.183   3.103   1.549 -0.1116 -0.2548  0.1130
  902ETO    ETO  917   1.348   3.189   1.317  0.2342 -0.0767 -0.5324
  903ETO    ETO  918   0.491   4.488   3.262 -0.1710 -0.2145  0.1243
  904ETO    ETO  919   0.802   3.730   2.777 -0.1505 -0.0620  0.3312
  905ETO    ETO  920   1.910   0.249   1.942 -0.1964 -0.1908 -0.2012
  906ETO    ETO  921   3.855   2.773   0.821 -0.2693 -0.0343  0.2059
  907ETO    ETO  922   3.798   0.641   2.013  0.2251 -0.0689 -0.0933
  908ETO    ETO  923   2.784   4.593   2.691 -0.3311 -0.3703  0.1704
  909ETO    ETO  924   4.279   3.698   1.848 -0.1545 -0.2328  0.0161
  910ETO    ETO  925   1.441   2.296   0.058 -0.1364 -0.2174 -0.2459
  911ETO    ETO  926   0.198   0.166   2.348  0.0456 -0.1504  0.0910
  912ETO    ETO  927   0.065   0.664   4.167  0.1460  0.0785  0.2646
  913ETO    ETO  928   2.118   3.108   0.778  0.2209 -0.1312 -0.2012
  914ETO    ETO  929   2.345   0.947   4.716 -0.1694  0.2004  0.0324
  915ETO    ETO  930   1.728   1.352   4.595  0.1818  0.5591 -0.3882
  916ETO    ETO  931   2.003   1.666   4.392 -0.0263 -0.2054 -0.2836
  917ETO    ETO  932   0.699   2.016   4.759  0.0695 -0.2187 -0.3849
  918ETO    ETO  933   1.620   1.608   4.257  0.2873  0.1909  0.0164
  919ETO    ETO  934   3.717   3.002   1.480 -0.1873 -0.0013 -0.0331
  920ETO    ETO  935   0.405   2.327   4.680 -0.2580  0.2899  0.0179
  921ETO    ETO  936   0.331   0.529   1.993 -0.2952  0.2908 -0.4468
  922ETO    ETO  937   2.454   4.246   2.675 -0.1187  0.3335 -0.2529
  923ETO    ETO  938   4.799   0.249   1.558 -0.2798 -0.2228 -0.1256
  924ETO    ETO  939   4.180   1.009   4.973 -0.2033 -0.1261  0.5505
  925ETO    ETO  940   4.939   4.347   1.220  0.0536 -0.1897  0.1821
  926ETO    ETO  941   2.701   0.316   4.268  0.0513  0.3240  0.2604
  927ETO    ETO  942   2.985   3.523   1.552 -0.1347  0.1326  0.1200
  928ETO    ETO  943   2.064   4.341   3.204  0.3864 -0.1179  0.1685
  929ETO    ETO  944   2.930   3.151   0.595 -0.0373  0.0527 -0.1075
  930ETO    ETO  945   4.102   2.157   0.702 -0.4503 -0.0680 -0.2562
  931ETO    ETO  946   0.645   2.987   0.732  0.2910  0.3215  0.1696
  932ETO    ETO  947   3.612   3.667   2.754  0.1605  0.4937 -0.2568
  933ETO    ETO  948   0.676   2.372   3.472 -0.2972  0.1150  0.0167
  934ETO    ETO  949   2.936   4.696   0.609  0.4214 -0.1783 -0.1155
  935ETO    ETO  950   3.013   0.314   3.078 -0.0605 -0.0492 -0.4314
  936ETO    ETO  951   0.896   1.496   0.107  0.0022  0.3127  0.0535
  937ETO    ETO  952   2.410   4.598   3.143  0.1360 -0.3199  0.3406
  938ETO    ETO  953   0.812   4.511   0.237  0.1329 -0.4913  0.2285
  939ETO    ETO  954   2.454   1.389   1.171  0.0299 -0.2702 -0.1395
  940ETO    ETO  955   4.334   4.542   2.647 -0.1208  0.1001 -0.4652
  941ETO    ETO  956   0.078   0.638   4.605 -0.0710  0.3613  0.0667
  942ETO    ETO  957   0.305   0.575   3.757  0.0506 -0.0428  0.3907
  943ETO    ETO  958   2.063   0.413   2.346 -0.1060  0.0226 -0.0874
  944ETO    ETO  959   5.075   2.601   0.623  0.0759  0.3941  0.0093
  945ETO    ETO  960   3.287   2.183   0.102  0.3648  0.0344  0.1016
  946ETO    ETO  961   0.510   2.690   2.020 -0.3326 -0.0370  0.0903
  947ETO    ETO  962   2.020   0.018   3.332  0.3103  0.3243  0.0140
  948ETO    ETO  963   3.059   1.879   1.156 -0.2404  0.2163 -0.2821
  949ETO    ETO  964   0.810   4.577   2.926  0.1782 -0.0657  0.3218
  950ETO    ETO  965   3.799   2.733   2.106 -0.0977 -0.2186  0.0189
  951ETO    ETO  966   1.448   1.341   1.610 -0.1867  0.1702  0.3819
  952ETO    ETO  967   0.381   4.661   1.349  0.0960 -0.0306  0.1099
  953ETO    ETO  968   3.112   0.308   0.676 -0.0978 -0.1787 -0.3066
  954ETO    ETO  969   3.119   1.258   2.470  0.2644  0.0083  0.0450
  955ETO    ETO  970   1.332   3.064   2.633  0.0775  0.0519  0.5270
  956ETO    ETO  971   2.340   1.078   4.274 -0.3807 -0.3986  0.2105
  957ETO    ETO  972   4.069   0.688   1.222 -0.1227 -0.0336  0.3407
  958ETO    ETO  973   2.914   0.826   1.761 -0.2205  0.0542  0.1967
  959ETO    ETO  974   4.228   4.983   1.939 -0.1949 -0.0205  0.1757
  960ETO    ETO  975   1.161   1.931   2.149  0.0522  0.1887  0.1739
  961ETO    ETO  976   3.624   3.907   3.444  0.4172 -0.0480  0.1589
  962ETO    ETO  977   2.792   2.948   1.468 -0.1456 -0.0747 -0.0205
  963ETO    ETO  978   4.358   2.120   3.484  0.0526 -0.2333  0.2730
  964ETO    ETO  979   1.354   1.727   1.367  0.1649  0.3194 -0.2530
  965ETO    ETO  980   3.516   4.471   2.524  0.1479  0.2483  0.0908
  966ETO    ETO  981   0.882   4.177   3.477 -0.1205 -0.0246  0.1156
  967ETO    ETO  982   3.187   1.903   1.704 -0.2904 -0.1531  0.0953
  968ETO    ETO  983   3.679   1.625   0.083 -0.0275  0.2402  0.0922
  969ETO    ETO  984   4.386   4.105   1.153  0.0916  0.0395  0.0390
  970ETO    ETO  985   3.000   1.496   2.923  0.1901  0.5669 -0.0721
  971ETO    ETO  986   0.806   1.761   0.938  0.0968 -0.2401 -0.0247
  972ETO    ETO  987   3.522   4.985   1.353 -0.0795 -0.0879 -0.1261
  973ETO    ETO  988   4.543   0.679   5.053  0.1048  0.0549  0.0334
  974ETO    ETO  989   4.642   3.371   4.233 -0.1164 -0.1884  0.0715
  975ETO    ETO  990   0.272   1.779   5.037 -0.0947 -0.2380  0.2387
  976ETO    ETO  991   4.394   4.948   2.861  0.0258 -0.0511  0.0133
  977ETO    ETO  992   3.532   4.161   1.339 -0.3274 -0.2598  0.1578
  978ETO    ETO  993   0.594   3.054   2.224  0.2164  0.0740  0.0010
  979ETO    ETO  994   0.003   3.377   2.157 -0.1829 -0.1295  0.0646
  980ETO    ETO  995   3.514   4.009   4.004 -0.0485  0.0822  0.3902
  981ETO    ETO  996   0.984   4.019   0.219 -0.2509  0.0685 -0.1182
  982ETO    ETO  997   2.588   3.036   3.399  0.3923  0.2833  0.2192
  983ETO    ETO  998   0.800   3.695   3.739  0.1199 -0.0245 -0.3056
  984ETO    ETO  999   4.739   2.544   4.147 -0.1965  0.0447 -0.3696
  985ETO    ETO 1000   1.389   2.897   2.146  0.2129 -0.2349 -0.2350
  986ETO    ETO 1001   4.761   4.766   3.491  0.1855  0.1536  0.1365
  987ETO    ETO 1002   2.294   3.931   4.376  0.0364  0.1502 -0.0045
  988ETO    ETO 1003   4.006   3.346   2.476 -0.0665 -0.4538  0.0278
  989ETO    ETO 1004   2.788   2.346   4.069 -0.2137  0.0170 -0.2146
  990ETO    ETO 1005   0.249   2.179   3.693 -0.1397  0.2065 -0.0368
  991ETO    ETO 1006   1.108   0.560   0.542  0.3522  0.0939  0.0429
  992ETO    ETO 1007   0.363   0.986   1.846  0.0950  0.0157 -0.1055
  993ETO    ETO 1008   0.757   2.051   2.886 -0.0566  0.0702  0.1058
  994ETO    ETO 1009   2.664   2.861   2.240  0.0563 -0.2522 -0.0362
  995ETO    ETO 1010   1.161   3.903   2.555 -0.2449  0.4441 -0.0571
  996ETO    ETO 1011   1.621   2.089   3.570  0.0151 -0.1340  0.1752
  997ETO    ETO 1012   2.183   0.072   0.600 -0.1201 -0.1983  0.1202
  998ETO    ETO 1013   4.781   3.524   3.865  0.2390  0.4807 -0.0868
  999ETO    ETO 1014   2.841   0.467   2.410 -0.3077  0.0898  0.4011
 1000ETO    ETO 1015   4.117   0.303   4.120 -0.0257 -0.0781  0.0424
 1001ETO    ETO 1016   0.473   0.618   4.430 -0.0762  0.0344  0.2046
 1002ETO    ETO 1017   4.697   2.010   5.083 -0.0173 -0.2791  0.3263
 1003ETO    ETO 1018   5.089   4.043   3.094 -0.1135  0.0010 -0.1671
 1004ETO    ETO 1019   1.750   3.751   4.584  0.0900 -0.3840 -0.1262
 1005ETO    ETO 1020   3.506   0.465   4.175 -0.0113 -0.1230  0.1343
 1006ETO    ETO 1021   2.028   3.338   3.840  0.3283  0.3254  0.0994
 1007ETO    ETO 1022   4.373   2.742   4.795  0.0858 -0.5380  0.0117
 1008ETO    ETO 1023   3.081   0.089   2.165 -0.0407 -0.0300 -0.2810
 1009ETO    ETO 1024   4.709   3.287   2.675 -0.4810  0.1008 -0.1299
 1010ETO    ETO 1025   1.111   4.906   4.392  0.0650  0.2436 -0.0530
 1011ETO    ETO 1026   0.445   4.263   1.359  0.2225 -0.0189 -0.0596
 1012ETO    ETO 1027   4.871   2.281   2.902  0.0534 -0.0077 -0.1751
 1013ETO    ETO 1028   4.769   4.151   1.841 -0.2734  0.2414  0.1276
 1014ETO    ETO 1029   3.784   1.888   0.686 -0.0599 -0.1641 -0.1604
 1015ETO    ETO 1030   0.372   4.655   4.987  0.1336 -0.3820 -0.0935
 1016ETO    ETO 1031   2.172   0.476   0.412 -0.1688 -0.1181  0.0325
 1017ETO    ETO 1032   0.407   0.708   0.613  0.3486  0.2426  0.2083
 1018ETO    ETO 1033   0.733   2.852   3.740  0.0470 -0.1273  0.2678
 1019ETO    ETO 1034   3.114   4.968   1.288 -0.1655 -0.0172 -0.0830
 1020ETO    ETO 1035   3.623   1.426   0.939  0.1764 -0.0829  0.0503
 1021ETO    ETO 1036   1.638   2.447   2.176  0.1210  0.1129  0.0727
 1022ETO    ETO 1037   1.173   1.252   0.540 -0.4141 -0.2721 -0.4235
 1023ETO    ETO 1038   0.942   5.080   2.865 -0.1123 -0.3129 -0.4684
 1024ETO    ETO 1039   4.684   2.035   3.760 -0.1114 -0.1745 -0.0208
 1025ETO    ETO 1040   4.221   4.683   1.186  0.1934 -0.2442  0.1704
 1026ETO    ETO 1041   2.623   1.026   0.058 -0.1758  0.1392  0.2219
 1027ETO    ETO 1042   3.479   3.520   3.163 -0.1787 -0.1921 -0.4323
 1028ETO    ETO 1043   4.861   0.362   3.795 -0.1980  0.3304  0.0787
 1029ETO    ETO 1044   1.178   2.605   2.384  0.0142  0.2218  0.3589
 1030ETO    ETO 1045   1.141   2.739   4.597 -0.0898  0.0238  0.2054
 1031ETO    ETO 1046   3.070   2.909   3.132 -0.1547 -0.0957 -0.0740
 1032ETO    ETO 1047   5.031   2.597   3.135  0.0091  0.1641  0.0002
 1033ETO    ETO 1048   3.917   1.029   0.854  0.2705  0.2146  0.1093
 1034ETO    ETO 1049   3.684   1.412   3.807 -0.2413  0.0798 -0.0127
 1035ETO    ETO 1050   4.415   3.712   3.518  0.2099 -0.1356  0.5012
 1036ETO    ETO 1051   1.069   4.773   2.521 -0.4097  0.0078 -0.0285
 1037ETO    ETO 1052   1.769   5.047   0.926 -0.0153  0.1956 -0.1896
 1038ETO    ETO 1053   3.411   4.400   0.313  0.2752 -0.0145  0.1553
 1039ETO    ETO 1054   2.394   3.549   2.069 -0.0132  0.0845 -0.0803
 1040ETO    ETO 1055   1.318   2.559   2.966  0.0497 -0.2068 -0.0420
 1041ETO    ETO 1056   1.754   2.768   3.208  0.2522  0.0613  0.0492
 1042ETO    ETO 1057   4.608   4.458   1.511  0.0785 -0.1285  0.2379
 1043ETO    ETO 1058   0.046   2.288   1.637 -0.3404 -0.1377 -0.0142
 1044ETO    ETO 1059   1.351   0.852   3.496  0.3952 -0.2047 -0.0011
 1045ETO    ETO 1060   2.402   0.610   4.203 -0.5533 -0.0163 -0.0659
 1046ETO    ETO 1061   1.235   2.905   3.229  0.2107 -0.2049 -0.0218
 1047ETO    ETO 1062   4.683   2.418   1.717  0.1610 -0.0261 -0.2155
 1048ETO    ETO 1063   2.002   2.139   3.798 -0.4212 -0.1015 -0.0865
 1049ETO    ETO 1064   1.167   4.838   0.590 -0.0179 -0.0134  0.2151
 1050ETO    ETO 1065   5.087   2.939   2.732  0.0577 -0.0157  0.0053
 1051ETO    ETO 1066   3.347   0.933   4.960  0.3784  0.0636  0.1135
 1052ETO    ETO 1067   2.804   3.763   1.851 -0.1729  0.3155 -0.2208
 1053ETO    ETO 1068   2.420   0.383   2.077 -0.0569 -0.1278  0.3027
 1054ETO    ETO 1069   4.312   4.182   2.456  0.4002  0.1911  0.0092
 1055ETO    ETO 1070   4.509   1.001   0.461 -0.0625  0.0335 -0.0399
 1056ETO    ETO 1071   1.503   1.603   3.555  0.2029  0.2476 -0.0701
 1057ETO    ETO 1072   0.311   0.074   1.063 -0.1099  0.0125 -0.0406
 1058ETO    ETO 1073   3.397   4.052   0.908 -0.7359  0.2515  0.0433
 1059ETO    ETO 1074   3.976   2.777   5.071  0.0348  0.2768 -0.2390
 1060ETO    ETO 1075   3.024   1.957   4.913  0.2192 -0.1395  0.3373
 1061ETO    ETO 1076   2.719   2.339   4.608  0.1202 -0.1175 -0.1962
 1062ETO    ETO 1077   4.570   2.952   1.544 -0.4212 -0.3585  0.2043
 1063ETO    ETO 1078   3.413   1.520   0.525 -0.0191  0.0131  0.1462
 1064ETO    ETO 1079   3.445   2.414   3.641 -0.2206  0.2519 -0.0177
 1065ETO    ETO 1080   1.735   2.452   1.183 -0.0067  0.5638  0.0729
 1066ETO    ETO 1081   4.177   1.057   1.464  0.4090 -0.0013 -0.1496
 1067ETO    ETO 1082   5.115   0.993   0.986 -0.2000  0.1153 -0.3523
 1068ETO    ETO 1083   3.322   2.340   1.630 -0.0626  0.0945 -0.1381
 1069ETO    ETO 1084   3.260   4.284   3.202  0.0761 -0.0886  0.2620
 1070ETO    ETO 1085   0.935   0.687   3.185 -0.2588  0.1388 -0.1902
 1071ETO    ETO 1086   4.419   0.200   1.165  0.0869  0.1310 -0.1246
 1072ETO    ETO 1087   1.465   3.579   4.332  0.0902 -0.4224 -0.0169
 1073ETO    ETO 1088   0.900   3.796   4.876 -0.1488  0.4597 -0.1394
 1074ETO    ETO 1089   1.524   4.556   1.433 -0.0238 -0.0077  0.2264
 1075ETO    ETO 1090   0.388   1.423   2.145  0.0932 -0.3689 -0.4060
 1076ETO    ETO 1091   0.153   3.515   0.229 -0.1108 -0.4331  0.0156
 1077ETO    ETO 1092   0.843   0.408   4.817  0.1438 -0.0876  0.4077
 1078ETO    ETO 1093   1.364   2.690   4.188 -0.2091  0.3436 -0.1916
 1079ETO    ETO 1094   4.571   2.844   0.224 -0.2482  0.1770 -0.2624
 1080ETO    ETO 1095   3.995   3.022   4.663  0.0855  0.0105 -0.0650
 1081ETO    ETO 1096   3.946   3.084   4.221  0.3447 -0.1488 -0.3116
 1082ETO    ETO 1097   4.407   0.650   4.307  0.1606  0.2500 -0.2044
 1083ETO    ETO 1098   3.533   4.104   2.272 -0.2191  0.0827 -0.1098
 1084ETO    ETO 1099   2.904   0.005   0.393  0.2390  0.1542 -0.1156
 1085ETO    ETO 1100   4.932   3.807   4.603 -0.2010  0.2812  0.0947
 1086ETO    ETO 1101   2.807   1.172   4.012  0.0266  0.0956  0.0345
 1087ETO    ETO 1102   4.991   0.684   3.488 -0.0100  0.0215  0.0509
 1088ETO    ETO 1103   1.994   2.132   4.335 -0.0517  0.0116  0.0088
 1089ETO    ETO 1104   2.619   1.171   1.542 -0.1740  0.2042 -0.1733
 1090ETO    ETO 1105   4.554   3.256   4.917 -0.0908 -0.4142  0.2225
 1091ETO    ETO 1106   1.476   1.593   0.353 -0.1252 -0.1282 -0.1107
 1092ETO    ETO 1107   1.388   2.135   0.461  0.3823 -0.1971 -0.4541
 1093ETO    ETO 1108   0.113   1.073   4.424  0.1322 -0.1576  0.2022
 1094ETO    ETO 1109   0.797   4.609   2.207  0.4120  0.0232 -0.1494
 1095ETO    ETO 1110   3.859   4.364   0.283  0.0687 -0.0699 -0.0147
 1096ETO    ETO 1111   1.126   2.401   4.810 -0.0637  0.1333 -0.0828
 1097ETO    ETO 1112   5.101   2.239   5.033 -0.5760 -0.0984 -0.0638
 1098ETO    ETO 1113   2.452   4.967   4.568  0.0268 -0.3900  0.0836
 1099ETO    ETO 1114   3.152   3.468   2.002  0.0963  0.1031 -0.0019
 1100ETO    ETO 1115   0.591   4.062   3.830 -0.1309  0.3886 -0.3016
 1101ETO    ETO 1116   1.905   3.750   0.192 -0.4516  0.0462 -0.0855
 1102ETO    ETO 1117   3.090   3.013   1.996 -0.1266 -0.0580 -0.0797
 1103ETO    ETO 1118   1.221   2.714   0.279 -0.1153  0.1182  0.1352
 1104ETO    ETO 1119   2.079   2.668   0.480  0.1126  0.0871  0.1852
 1105ETO    ETO 1120   4.763   2.815   3.380  0.1909 -0.1349  0.0304
 1106ETO    ETO 1121   0.472   4.977   2.100  0.2874 -0.0932 -0.1343
 1107ETO    ETO 1122   1.273   4.397   0.486 -0.0835  0.2184 -0.3442
 1108ETO    ETO 1123   2.935   2.068   3.245  0.0158  0.3350  0.0072
 1109ETO    ETO 1124   1.241   0.154   1.993  0.1214  0.1154  0.0162
 1110ETO    ETO 1125   0.430   2.199   4.099 -0.0796  0.3813 -0.0909
 1111ETO    ETO 1126   5.026   4.977   0.895  0.3577  0.3631  0.1617
 1112ETO    ETO 1127   5.002   2.121   2.133  0.1798 -0.1913 -0.1952
 1113ETO    ETO 1128   4.598   2.472   0.628 -0.0292  0.2264 -0.2598
 1114ETO    ETO 1129   3.408   0.044   0.478  0.3102  0.0066 -0.0346
 1115ETO    ETO 1130   3.294   0.041   4.275  0.0791  0.2040 -0.0235
 1116ETO    ETO 1131   0.705   3.164   3.032  0.0605 -0.2424 -0.1731
 1117ETO    ETO 1132   4.799   5.066   3.143 -0.1761 -0.0646 -0.0841
 1118ETO    ETO 1133   3.778   0.191   4.456  0.1140 -0.2096  0.3526
 1119ETO    ETO 1134   0.132   0.155   4.060 -0.0062 -0.0494 -0.0341
 1120ETO    ETO 1135   4.445   3.743   4.122  0.2575  0.1224  0.1590
 1121ETO    ETO 1136   1.929   3.479   1.800 -0.0936  0.0168 -0.1186
 1122ETO    ETO 1137   5.044   3.970   2.152  0.0421  0.0087 -0.0242
 1123ETO    ETO 1138   1.702   4.305   3.461  0.0276 -0.2813 -0.1767
 1124ETO    ETO 1139   1.630   0.547   4.107  0.1004 -0.4153  0.0687
 1125ETO    ETO 1140   4.465   1.258   3.438 -0.0217 -0.2141  0.0478
 1126ETO    ETO 1141   3.557   1.200   2.646 -0.2236  0.0086  0.0973
 1127ETO    ETO 1142   1.215   1.408   4.078  0.0717 -0.1324  0.2067
 1128ETO    ETO 1143   3.019   2.235   1.915  0.0845  0.0058  0.4762
 1129ETO    ETO 1144   4.608   0.932   4.649 -0.0059  0.3111 -0.0752
 1130ETO    ETO 1145   0.172   1.447   4.728 -0.0489 -0.2383  0.2379
 1131ETO    ETO 1146   3.951   0.913   2.318  0.2740 -0.3469 -0.3699
 1132ETO    ETO 1147   0.942   2.452   0.591  0.1036  0.1167 -0.1218
 1133ETO    ETO 1148   1.397   3.761   0.505  0.1459  0.2421  0.0025
 1134ETO    ETO 1149   2.582   4.976   2.580  0.1906 -0.3415  0.0144
 1135ETO    ETO 1150   1.107   1.929   4.799 -0.3857  0.2853 -0.0060
 1136ETO    ETO 1151   0.921   0.935   3.580 -0.4469  0.0673 -0.1210
 1137ETO    ETO 1152   0.913   2.750   0.951 -0.2612 -0.2104  0.1296
 1138ETO    ETO 1153   1.665   2.979   4.581 -0.1504 -0.0991 -0.2731
 1139ETO    ETO 1154   1.829   0.934   3.384  0.0066  0.0636 -0.0517
 1140ETO    ETO 1155   2.353   1.372   3.016 -0.1120 -0.0254  0.0048
 1141ETO    ETO 1156   2.974   0.768   3.182 -0.0987 -0.1184 -0.1307
 1142ETO    ETO 1157   3.684   0.206   0.855  0.4378 -0.2461  0.0019
 1143ETO    ETO 1158   3.444   3.481   4.848 -0.0497 -0.0833  0.2187
 1144ETO    ETO 1159   3.367   2.896   3.716  0.0561 -0.0235  0.0955
 1145ETO    ETO 1160   4.496   2.609   3.690  0.1402  0.2657  0.0298
 1146ETO    ETO 1161   4.406   4.218   2.926 -0.0437 -0.0965 -0.0722
 1147ETO    ETO 1162   4.369   0.216   1.577 -0.2880 -0.3331  0.0906
 1148ETO    ETO 1163   4.682   0.051   4.532  0.3224  0.0343  0.4344
 1149ETO    ETO 1164   2.248   1.630   1.836 -0.0367 -0.2973  0.1188
 1150ETO    ETO 1165   2.195   4.445   3.680 -0.2050 -0.1766  0.1723
 1151ETO    ETO 1166   3.965   0.602   3.655  0.3025 -0.1023 -0.0599
 1152ETO    ETO 1167   3.136   2.726   1.312 -0.4758  0.2226  0.4289
 1153ETO    ETO 1168   0.016   1.132   3.294  0.0498  0.1236  0.0581
 1154ETO    ETO 1169   4.235   4.492   0.405  0.3494 -0.2670 -0.0522
 1155ETO    ETO 1170   4.523   3.191   3.025 -0.2499  0.1710 -0.1685
 1156ETO    ETO 1171   3.839   1.640   1.351  0.2412 -0.0732  0.0744
 1157ETO    ETO 1172   1.727   0.033   3.827  0.0739 -0.2196 -0.5746
 1158ETO    ETO 1173   0.846   1.459   4.369 -0.2201 -0.0509 -0.1269
 1159ETO    ETO 1174   1.892   0.789   2.949 -0.0434 -0.0327  0.2811
 1160ETO    ETO 1175   1.248   4.492   1.032  0.0263 -0.1078 -0.1948
 1161ETO    ETO 1176   2.770   1.778   4.001 -0.0433  0.0916  0.0382
 1162ETO    ETO 1177   3.356   3.162   0.498  0.0138 -0.1732  0.5050
 1163ETO    ETO 1178   3.429   1.647   2.589 -0.1656 -0.2400  0.2739
 1164ETO    ETO 1179   0.762   0.658   2.680 -0.0065  0.0047 -0.2974
 1165ETO    ETO 1180   2.245   4.875   3.836  0.0289 -0.2606  0.2027
 1166ETO    ETO 1181   4.134   4.364   3.778  0.1330  0.3291 -0.1591
 1167ETO    ETO 1182   4.187   1.520   3.663 -0.0310 -0.0485  0.0784
 1168ETO    ETO 1183   3.816   2.507   4.264 -0.1460 -0.5131  0.0931
 1169ETO    ETO 1184   0.473   3.225   3.362 -0.1375 -0.5200 -0.4893
 1170ETO    ETO 1185   3.634   2.043   1.492  0.3632  0.2969  0.1108
 1171ETO    ETO 1186   4.784   4.245   4.626  0.2046 -0.0883  0.2891
 1172ETO    ETO 1187   4.310   1.338   0.525 -0.0643  0.1804  0.3385
 1173ETO    ETO 1188   3.713   2.105   4.125  0.2640 -0.0105  0.0095
 1174ETO    ETO 1189   4.329   2.984   1.925 -0.2218  0.0935 -0.2407
 1175ETO    ETO 1190   4.723   1.489   1.422  0.0968  0.0376  0.1174
 1176ETO    ETO 1191   0.043   1.636   4.331  0.1191  0.4178  0.1926
 1177ETO    ETO 1192   3.394   0.716   4.585 -0.0263 -0.0633 -0.1555
 1178ETO    ETO 1193   4.825   5.096   1.242 -0.0603 -0.3484  0.2080
 1179ETO    ETO 1194   3.890   3.079   1.864  0.0148  0.3590 -0.0817
 1180ETO    ETO 1195   1.803   4.761   2.141 -0.1515 -0.1003 -0.1061
 1181ETO    ETO 1196   2.155   4.517   4.102  0.2556 -0.0988  0.2237
 1182ETO    ETO 1197   1.489   2.779   1.284  0.1029 -0.1197  0.1283
 1183ETO    ETO 1198   0.962   3.976   0.663  0.3562  0.0085  0.0540
 1184ETO    ETO 1199   1.686   4.459   1.055 -0.2318 -0.4956 -0.1828
 1185ETO    ETO 1200   3.540   4.678   1.932 -0.5139  0.1566 -0.3198
 1186ETO    ETO 1201   2.280   3.542   4.628 -0.0305 -0.2075 -0.4810
 1187ETO    ETO 1202   4.731   1.323   0.923 -0.0109 -0.2543 -0.0591
 1188ETO    ETO 1203   1.587   0.116   4.979 -0.1662 -0.0432 -0.0784
 1189ETO    ETO 1204   4.562   2.432   4.985 -0.0195  0.3721 -0.0146
 1190ETO    ETO 1205   4.596   2.462   4.531  0.3665 -0.1211 -0.0994
 1191ETO    ETO 1206   5.042   0.526   2.159  0.3177  0.1627 -0.1430
 1192ETO    ETO 1207   5.013   1.256   2.282  0.0094 -0.1169  0.0568
 1193ETO    ETO 1208   4.033   3.585   4.315 -0.1179  0.4273  0.1843
 1194ETO    ETO 1209   4.918   3.147   1.787 -0.0773 -0.1312  0.1849
 1195ETO    ETO 1210   1.310   2.924   1.728 -0.2767 -0.1129 -0.3087
 1196ETO    ETO 1211   1.297   4.824   4.813  0.1658 -0.0744 -0.0361
 1197ETO    ETO 1212   0.614   3.026   1.521  0.1164  0.2418  0.4272
 1198ETO    ETO 1213   4.523   2.879   0.674  0.0861  0.1657 -0.1128
 1199ETO    ETO 1214   4.937   4.782   5.005  0.4056  0.0621 -0.1113
 1200ETO    ETO 1215   0.983   3.610   0.405  0.4706 -0.2430 -0.2827
 1201ETO    ETO 1216   2.066   2.005   1.814  0.3056  0.3080 -0.2146
 1202ETO    ETO 1217   4.689   3.398   3.442 -0.1347  0.1410 -0.0267
 1203ETO    ETO 1218   0.038   4.956   1.419  0.1888  0.2103  0.0525
 1204ETO    ETO 1219   3.534   0.530   4.948  0.0415 -0.0828  0.1629
 1205ETO    ETO 1220   2.541   0.696   0.266 -0.1319 -0.0514 -0.1098
 1206ETO    ETO 1221   4.295   4.205   0.014 -0.0398  0.4172  0.3177
 1207ETO    ETO 1222   0.042   3.392   2.638  0.2928 -0.5483  0.1011
 1208ETO    ETO 1223   0.990   0.924   4.773  0.3954 -0.1265 -0.1568
 1209ETO    ETO 1224   1.651   2.298   3.106  0.0638  0.3372 -0.2080
 1210ETO    ETO 1225   4.923   3.494   2.976  0.3136 -0.0994  0.1645
 1211ETO    ETO 1226   0.803   2.071   4.261  0.1362 -0.1737 -0.2540
 1212ETO    ETO 1227   5.054   3.174   3.357 -0.3051  0.2013 -0.2346
 1213ETO    ETO 1228   4.702   1.919   2.749 -0.1401  0.2311 -0.0805
 1214ETO    ETO 1229   1.689   4.282   0.586 -0.1619  0.3319  0.2661
 1215ETO    ETO 1230   1.827   2.842   2.012 -0.4072  0.0544 -0.1768
 1216ETO    ETO 1231   5.098   1.850   3.650 -0.0043  0.2575 -0.1471
 1217ETO    ETO 1232   1.493   4.810   1.799 -0.4001 -0.1966 -0.2205
 1218ETO    ETO 1233   0.941   4.170   2.957 -0.0864 -0.3795 -0.2248
 1219ETO    ETO 1234   2.127   2.593   1.401  0.4171 -0.0774  0.0610
 1220ETO    ETO 1235   1.505   2.273   2.586 -0.1207 -0.1644 -0.1332
 1221ETO    ETO 1236   3.758   3.726   2.351 -0.4323 -0.1183 -0.1640
 1222ETO    ETO 1237   4.640   2.780   2.726 -0.0681  0.0738  0.1255
 1223ETO    ETO 1238   4.807   0.483   0.317 -0.3795  0.1151  0.2232
 1224ETO    ETO 1239   0.287   0.295   4.861 -0.4125 -0.3872 -0.2617
 1225ETO    ETO 1240   0.922   4.153   4.095  0.0924 -0.2003  0.2098
 1226ETO    ETO 1241   2.044   2.539   3.017 -0.1803  0.1488 -0.1298
 1227ETO    ETO 1242   0.872   1.714   3.171  0.0478 -0.0367 -0.1618
 1228ETO    ETO 1243   3.429   2.661   5.069  0.0775 -0.0640  0.3033
 1229ETO    ETO 1244   0.374   3.452   1.696 -0.2937  0.0411  0.2218
 1230ETO    ETO 1245   0.640   4.848   2.580 -0.1189  0.1826  0.3110
 1231ETO    ETO 1246   3.379   4.721   3.420  0.2640  0.0306 -0.2550
 1232ETO    ETO 1247   1.496   1.842   3.217 -0.4434  0.2343  0.0254
 1233ETO    ETO 1248   3.959   3.968   2.676  0.2384  0.0518 -0.0522
 1234ETO    ETO 1249   1.136   2.872   3.712  0.1475 -0.0844  0.3195
 1235ETO    ETO 1250   3.765   4.461   4.003  0.2326  0.2149 -0.5306
 1236ETO    ETO 1251   1.038   2.699   1.355 -0.0764  0.0057 -0.1070
 1237ETO    ETO 1252   0.025   4.386   2.481  0.0216  0.2816 -0.1242
 1238ETO    ETO 1253   4.280   3.237   0.175  0.0294  0.3124  0.1002
 1239ETO    ETO 1254   4.895   1.625   0.136 -0.0703  0.3141 -0.0207
 1240ETO    ETO 1255   1.177   1.732   2.581 -0.0533 -0.0358 -0.1786
 1241ETO    ETO 1256   3.056   1.564   4.413 -0.0805  0.2063  0.2828
 1242ETO    ETO 1257   0.166   1.947   0.355 -0.0657 -0.0031 -0.0721
 1243ETO    ETO 1258   0.308   4.055   3.392  0.1642 -0.1958  0.0234
 1244ETO    ETO 1259   1.381   1.811   3.900 -0.4143  0.0074  0.0282
 1245ETO    ETO 1260   3.958   2.184   2.301 -0.1039  0.1518  0.1424
 1246ETO    ETO 1261   2.802   0.700   0.605  0.2531 -0.2001 -0.0887
 1247ETO    ETO 1262   3.796   0.228   1.380  0.4677 -0.4814 -0.1308
 1248ETO    ETO 1263   4.660   1.830   3.222  0.1191 -0.1806  0.1127
 1249ETO    ETO 1264   4.217   2.131   5.114 -0.0100  0.3884 -0.1436
 1250ETO    ETO 1265   2.497   4.080   1.923 -0.0644  0.0959 -0.0669
 1251ETO    ETO 1266   4.940   2.723   1.582  0.1399  0.1570 -0.1613
 1252ETO    ETO 1267   2.712   1.733   0.888  0.0678 -0.1802 -0.2817
 1253ETO    ETO 1268   3.062   0.901   0.870  0.1533 -0.0646  0.2085
 1254ETO    ETO 1269   0.206   3.791   3.922 -0.3183 -0.0279 -0.1678
 1255ETO    ETO 1270   1.067   1.101   2.995 -0.1929 -0.2535  0.2923
 1256ETO    ETO 1271   0.561   0.743   4.851  0.0183 -0.0620  0.2027
 1257ETO    ETO 1272   2.078   3.885   4.855 -0.4318 -0.2430  0.0004
 1258ETO    ETO 1273   1.087   0.111   1.598  0.1871  0.0011  0.4066
 1259ETO    ETO 1274   4.476   2.188   0.943  0.0524  0.2154  0.1068
 1260ETO    ETO 1275   1.900   3.403   0.985 -0.0863  0.1141 -0.0817
 1261ETO    ETO 1276   2.607   3.511   0.663 -0.1059 -0.5182 -0.4179
 1262ETO    ETO 1277   1.090   4.624   4.027  0.0893 -0.4234 -0.0251
 1263ETO    ETO 1278   4.368   2.546   1.479  0.3719 -0.1035  0.7245
 1264ETO    ETO 1279   3.770   2.877   2.932  0.2823 -0.0439 -0.1379
 1265ETO    ETO 1280   2.398   3.450   3.598  0.0343 -0.2180  0.0861
 1266ETO    ETO 1281   0.407   1.561   0.293  0.4186  0.1707 -0.1020
 1267ETO    ETO 1282   1.286   0.463   5.022 -0.2569  0.2706  0.0168
 1268ETO    ETO 1283   3.550   2.009   0.353  0.2287  0.1693 -0.2812
 1269ETO    ETO 1284   3.194   3.130   4.664  0.1567 -0.1283  0.1230
 1270ETO    ETO 1285   0.421   4.217   0.100  0.0237 -0.2589  0.1250
 1271ETO    ETO 1286   1.884   2.551   0.120  0.2048  0.0579 -0.1789
 1272ETO    ETO 1287   2.627   3.729   3.259  0.1288 -0.3511  0.1131
 1273ETO    ETO 1288   2.222   5.019   2.301  0.0678  0.1542 -0.0265
 1274ETO    ETO 1289   3.107   4.331   4.665 -0.0592 -0.4367 -0.0591
 1275ETO    ETO 1290   4.447   4.496   1.924  0.2994  0.3325 -0.2195
 1276ETO    ETO 1291   3.298   1.196   4.554  0.0333  0.1932  0.1107
 1277ETO    ETO 1292   2.221   2.832   3.306 -0.3776  0.1523 -0.1596
 1278ETO    ETO 1293   1.041   2.833   4.991 -0.1787  0.1847  0.0973
 1279ETO    ETO 1294   4.181   4.743   4.168 -0.2171  0.0211 -0.0450
 1280ETO    ETO 1295   0.480   0.035   0.633 -0.0433 -0.1919 -0.1468
 1281ETO    ETO 1296   3.320   3.862   0.538 -0.3367 -0.4152  0.3231
 1282ETO    ETO 1297   2.145   0.891   5.098 -0.3507  0.4193 -0.1086
 1283ETO    ETO 1298   3.925   0.693   4.265 -0.1074  0.1337  0.1425
 1284ETO    ETO 1299   2.911   3.208   3.958 -0.1117 -0.0721  0.2085
 1285ETO    ETO 1300   1.970   4.348   4.575  0.1197 -0.1310  0.0953
 1286ETO    ETO 1301   4.823   1.570   4.064  0.2087  0.2446 -0.0322
 1287ETO    ETO 1302   4.335   4.926   3.285  0.0719 -0.0644 -0.2133
 1288ETO    ETO 1303   3.986   1.914   1.715  0.0245 -0.0754  0.0276
 1289ETO    ETO 1304   2.801   0.200   1.220 -0.1381  0.3269  0.3490
 1290ETO    ETO 1305   2.947   0.061   4.556 -0.5414 -0.0849  0.1189
 1291ETO    ETO 1306   1.407   4.111   0.809  0.0821 -0.2363 -0.3694
 1292ETO    ETO 1307   3.330   0.230   2.461 -0.1197 -0.2301 -0.0897
 1293ETO    ETO 1308   0.487   0.985   4.190 -0.2021  0.3099 -0.0024
 1294ETO    ETO 1309   1.985   0.213   1.494  0.1646  0.3071 -0.0095
 1295ETO    ETO 1310   2.043   0.088   4.874 -0.1059 -0.4189  0.4767
 1296ETO    ETO 1311   5.079   4.469   1.620 -0.0420 -0.1090  0.0703
 1297ETO    ETO 1312   5.100   1.644   0.821 -0.2400 -0.2579  0.2493
 1298ETO    ETO 1313   0.002   2.113   2.556  0.3459 -0.3022  0.0228
 1299ETO    ETO 1314   3.773   4.618   1.449  0.0174  0.2031  0.0697
 1300ETO    ETO 1315   4.279   4.112   1.635  0.0259 -0.2609  0.1322
 1301ETO    ETO 1316   0.012   4.192   3.807  0.1070  0.3065 -0.0488
 1302ETO    ETO 1317   2.791   3.939   1.422 -0.2739  0.2713 -0.1917
 1303ETO    ETO 1318   1.871   2.889   3.657 -0.1017 -0.4151 -0.3136
 1304ETO    ETO 1319   4.763   0.492   4.681  0.0113 -0.4502 -0.2763
 1305ETO    ETO 1320   2.017   4.649   1.664 -0.1972  0.3016 -0.2711
 1306ETO    ETO 1321   3.809   4.861   4.330  0.1430 -0.0283 -0.1171
 1307ETO    ETO 1322   0.414   4.437   3.671 -0.0161  0.3282 -0.0379
 1308ETO    ETO 1323   3.431   0.352   1.853 -0.1482 -0.1306 -0.3846
 1309ETO    ETO 1324   3.257   3.078   5.067 -0.2340  0.1546 -0.0226
 1310ETO    ETO 1325   2.184   3.073   4.929  0.0076 -0.1028 -0.3130
 1311ETO    ETO 1326   1.308   3.364   0.460 -0.3640  0.2349 -0.1332
 1312ETO    ETO 1327   3.877   3.546   3.900  0.1704  0.2417  0.1187
 1313ETO    ETO 1328   2.166   0.231   3.810  0.0212  0.0297 -0.2397
 1314ETO    ETO 1329   1.455   0.954   1.714  0.1815  0.1230 -0.0336
 1315ETO    ETO 1330   2.548   3.344   3.976 -0.1134 -0.1932  0.0506
 1316ETO    ETO 1331   0.506   1.987   1.569 -0.0409  0.0110 -0.1744
 1317ETO    ETO 1332   3.752   3.125   5.004  0.1131  0.1720 -0.1086
 1318ETO    ETO 1333   0.525   4.074   4.266 -0.1923 -0.1700  0.1913
 1319ETO    ETO 1334   3.049   4.755   1.909  0.1063 -0.3599 -0.2012
 1320ETO    ETO 1335   4.228   0.425   4.609  0.4500  0.0882 -0.1216
 1321ETO    ETO 1336   4.099   0.981   3.319 -0.0750  0.1889  0.0243
 1322ETO    ETO 1337   2.596   3.339   1.687 -0.0235  0.0363  0.0255
 1323ETO    ETO 1338   1.668   3.136   1.714  0.0022  0.2107  0.0479
 1324ETO    ETO 1339   0.163   1.403   2.929  0.0911  0.1805 -0.1610
 1325ETO    ETO 1340   1.569   2.428   4.486  0.0218  0.2133  0.4211
 1326ETO    ETO 1341   4.209   3.740   2.325 -0.0501  0.2394 -0.2299
 1327ETO    ETO 1342   4.056   1.378   2.628  0.1807 -0.2922  0.0153
 1328ETO    ETO 1343   4.584   1.052   1.267  0.2109  0.1314 -0.0810
 1329ETO    ETO 1344   1.663   3.054   0.813 -0.2243  0.2252  0.1357
 1330ETO    ETO 1345   1.896   1.709   2.096 -0.0996 -0.2234 -0.2434
 1331ETO    ETO 1346   1.807   1.634   3.015  0.0596  0.1843  0.0327
 1332ETO    ETO 1347   0.435   4.323   2.808  0.0345  0.2371 -0.1420
 1333ETO    ETO 1348   4.356   0.582   0.361 -0.0962 -0.0337  0.2016
 1334ETO    ETO 1349   1.061   4.511   4.613 -0.1712 -0.0897  0.3567
 1335ETO    ETO 1350   0.219   3.186   3.003  0.0900 -0.1115 -0.1241
 1336ETO    ETO 1351   2.843   2.130   0.204  0.0550  0.1226 -0.2090
 1337ETO    ETO 1352   2.745   0.493   3.486 -0.2810  0.0388  0.0533
 1338ETO    ETO 1353   4.695   3.849   3.249  0.1568  0.2281  0.1881
 1339ETO    ETO 1354   2.094   2.107   3.164  0.1429 -0.0521  0.3375
 1340ETO    ETO 1355   4.627   3.721   0.682 -0.0583 -0.0556  0.1931
 1341ETO    ETO 1356   2.918   4.254   1.902  0.1033  0.0356  0.0934
 1342ETO    ETO 1357   0.193   0.917   2.325 -0.0410  0.3223  0.0215
 1343ETO    ETO 1358   1.790   2.281   0.661 -0.0430  0.1596  0.0302
 1344ETO    ETO 1359   4.866   2.075   0.618 -0.0955  0.2606  0.1916
 1345ETO    ETO 1360   2.597   0.224   3.053 -0.0220  0.3123 -0.1373
 1346ETO    ETO 1361   1.738   3.463   0.585  0.0364 -0.0177  0.0412
 1347ETO    ETO 1362   0.891   0.375   3.620  0.4858  0.4331 -0.1481
 1348ETO    ETO 1363   0.846   3.736   3.225 -0.3734  0.2380 -0.1409
 1349ETO    ETO 1364   5.040   4.328   5.090  0.5386  0.0669 -0.3906
 1350ETO    ETO 1365   0.238   3.880   1.231 -0.2227  0.0827  0.2810
 1351ETO    ETO 1366   1.467   1.058   4.705 -0.4247  0.3892  0.2122
 1352ETO    ETO 1367   0.266   2.456   0.254  0.0063  0.0474  0.0352
 1353ETO    ETO 1368   4.149   2.935   1.538  0.5983  0.1196 -0.2990
 1354ETO    ETO 1369   1.987   0.462   5.052 -0.1072 -0.4146  0.4251
 1355ETO    ETO 1370   1.848   1.109   4.947 -0.0832 -0.0419 -0.4957
 1356ETO    ETO 1371   1.904   4.173   0.126 -0.0586  0.1179 -0.2257
 1357ETO    ETO 1372   1.975   3.029   2.939 -0.1286 -0.0410 -0.0412
 1358ETO    ETO 1373   4.248   4.302   4.292  0.3635  0.2804  0.1576
 1359ETO    ETO 1374   0.883   5.060   2.139 -0.1201 -0.1960 -0.0949
 1360ETO    ETO 1375   1.238   0.004   3.661 -0.2080  0.4456  0.1775
 1361ETO    ETO 1376   0.091   2.945   2.174 -0.2023 -0.1330  0.2587
 1362ETO    ETO 1377   1.174   5.056   1.112 -0.0694  0.0310 -0.0515
 1363ETO    ETO 1378   4.393   3.006   3.530  0.1161  0.0813  0.3737
 1364ETO    ETO 1379   2.424   0.567   4.908  0.1687  0.0069 -0.0499
 1365ETO    ETO 1380   3.810   4.308   1.794 -0.3542 -0.0493  0.2773
 1366ETO    ETO 1381   4.100   2.106   1.338 -0.0510  0.0954  0.1992
 1367ETO    ETO 1382   5.016   3.671   0.509 -0.2088  0.1153  0.1742
 1368ETO    ETO 1383   3.318   2.102   0.777 -0.2346  0.1543 -0.1075
 1369ETO    ETO 1384   3.981   0.625   2.843 -0.0576  0.1124  0.0940
 1370ETO    ETO 1385   4.756   3.617   4.985  0.2764  0.0397 -0.1232
 1371ETO    ETO 1386   3.571   3.316   2.527  0.5284  0.0667 -0.1870
 1372ETO    ETO 1387   3.161   3.091   1.045 -0.1701 -0.1423 -0.0405
 1373ETO    ETO 1388   3.385   0.734   3.310  0.1453  0.1348 -0.0925
 1374ETO    ETO 1389   4.275   1.292   0.969 -0.0178  0.2265 -0.0152
 1375ETO    ETO 1390   0.498   0.421   3.438  0.0416 -0.3429  0.2295
 1376ETO    ETO 1391   4.041   3.172   1.149 -0.2835  0.1588 -0.3896
 1377ETO    ETO 1392   4.614   0.507   1.933 -0.1675 -0.3043 -0.2823
 1378ETO    ETO 1393   2.557   4.763   3.523 -0.3665 -0.3387 -0.2626
 1379ETO    ETO 1394   4.046   5.087   0.847 -0.2986  0.1343  0.1844
 1380ETO    ETO 1395   3.907   4.419   2.219 -0.5118  0.0591 -0.1782
 1381ETO    ETO 1396   3.647   0.111   2.122 -0.5356 -0.0027 -0.0463
 1382ETO    ETO 1397   2.759   0.970   2.534 -0.0363 -0.0935 -0.0297
 1383ETO    ETO 1398   2.311   1.709   3.800  0.2433 -0.1465  0.1359
 1384ETO    ETO 1399   1.844   0.517   1.162  0.3306 -0.1687 -0.3470
 1385ETO    ETO 1400   0.436   5.004   1.623 -0.0047 -0.0783  0.2712
 1386ETO    ETO 1401   3.221   4.786   0.258  0.5336  0.0471  0.0565
 1387ETO    ETO 1402   4.571   4.245   0.364  0.2556 -0.1474  0.1133
 1388ETO    ETO 1403   4.593   4.494   5.096 -0.0079  0.4764 -0.0939
 1389ETO    ETO 1404   4.188   4.600   5.080  0.4071 -0.1782  0.2826
 1390ETO    ETO 1405   4.804   2.204   3.419 -0.1054  0.4680 -0.3204
 1391ETO    ETO 1406   2.054   3.564   2.377 -0.2061 -0.4435  0.0757
 1392ETO    ETO 1407   4.811   0.160   0.621 -0.1536  0.2977 -0.1961
 1393ETO    ETO 1408   4.600   1.111   0.011  0.0128  0.2614  0.2297
 1394ETO    ETO 1409   2.978   2.693   3.988  0.0721  0.0376  0.0875
 1395ETO    ETO 1410   4.726   1.910   1.857 -0.2841 -0.2813  0.2698
 1396ETO    ETO 1411   3.882   2.487   0.359 -0.2529 -0.1482  0.1044
 1397ETO    ETO 1412   4.206   0.804   1.839  0.0702 -0.4058 -0.4963
 1398ETO    ETO 1413   3.413   2.306   4.461 -0.0078  0.0166 -0.0614
 1399ETO    ETO 1414   4.606   0.937   1.715  0.0566  0.0363 -0.1474
 1400ETO    ETO 1415   5.094   1.154   0.592 -0.1075 -0.2289 -0.0782
 1401ETO    ETO 1416   1.131   1.312   4.660  0.2042 -0.1371 -0.0740
 1402ETO    ETO 1417   4.050   4.261   0.719 -0.0625  0.2535  0.2058
 1403ETO    ETO 1418   0.897   1.494   2.092 -0.1823 -0.1640  0.2157
 1404ETO    ETO 1419   2.953   3.667   1.065  0.0091 -0.2760  0.3798
 1405ETO    ETO 1420   1.170   3.439   2.526  0.3695 -0.0813  0.2257
 1406ETO    ETO 1421   4.562   1.443   4.744  0.1101 -0.0803  0.4602
 1407ETO    ETO 1422   1.199   0.186   4.653  0.3446 -0.1415 -0.2048
 1408ETO    ETO 1423   4.134   0.129   2.443  0.1546  0.0166 -0.1474
 1409ETO    ETO 1424   4.504   2.134   2.175  0.4451  0.3479 -0.2003
 1410ETO    ETO 1425   0.809   5.095   3.476 -0.2942 -0.0914  0.3199
 1411ETO    ETO 1426   2.979   2.435   0.516  0.3503  0.2792  0.0693
 1412ETO    ETO 1427   0.424   4.340   2.304 -0.0484 -0.0401 -0.1668
 1413ETO    ETO 1428   2.750   4.710   0.098  0.0037  0.0039  0.0601
 1414ETO    ETO 1429   0.462   2.678   4.396  0.2684 -0.0012 -0.0896
 1415ETO    ETO 1430   2.563   3.633   0.259  0.0653  0.1265 -0.0499
   5.11701   5.11701   5.11701
