; /home/vinicius/python_venvs/polyply-env/bin/polyply gen_params -lib brushes_martini -o pmma.itp -name PMMA -seq PMMA:15

; Please cite the following papers:

[ moleculetype ]
PMMA 1

[ atoms ]
 1 SCM  1 PMMA CM  1 0.0 54.0
 2 N4M  1 PMMA OM  2 0.0 72.0
 3 SCM  2 PMMA CM  3 0.0 54.0
 4 N4M  2 PMMA OM  4 0.0 72.0
 5 SCM  3 PMMA CM  5 0.0 54.0
 6 N4M  3 PMMA OM  6 0.0 72.0
 7 SCM  4 PMMA CM  7 0.0 54.0
 8 N4M  4 PMMA OM  8 0.0 72.0
 9 SCM  5 PMMA CM  9 0.0 54.0
10 N4M  5 PMMA OM 10 0.0 72.0
11 SCM  6 PMMA CM 11 0.0 54.0
12 N4M  6 PMMA OM 12 0.0 72.0
13 SCM  7 PMMA CM 13 0.0 54.0
14 N4M  7 PMMA OM 14 0.0 72.0
15 SCM  8 PMMA CM 15 0.0 54.0
16 N4M  8 PMMA OM 16 0.0 72.0
17 SCM  9 PMMA CM 17 0.0 54.0
18 N4M  9 PMMA OM 18 0.0 72.0
19 SCM 10 PMMA CM 19 0.0 54.0
20 N4M 10 PMMA OM 20 0.0 72.0
21 SCM 11 PMMA CM 21 0.0 54.0
22 N4M 11 PMMA OM 22 0.0 72.0
23 SCM 12 PMMA CM 23 0.0 54.0
24 N4M 12 PMMA OM 24 0.0 72.0
25 SCM 13 PMMA CM 25 0.0 54.0
26 N4M 13 PMMA OM 26 0.0 72.0
27 SCM 14 PMMA CM 27 0.0 54.0
28 N4M 14 PMMA OM 28 0.0 72.0
29 SCM 15 PMMA CM 29 0.0 54.0
30 N4M 15 PMMA OM 30 0.0 72.0

[ bonds ]
 1  2 1 0.282 40000
 3  4 1 0.282 40000
 5  6 1 0.282 40000
 7  8 1 0.282 40000
 9 10 1 0.282 40000
11 12 1 0.282 40000
13 14 1 0.282 40000
15 16 1 0.282 40000
17 18 1 0.282 40000
19 20 1 0.282 40000
21 22 1 0.282 40000
23 24 1 0.282 40000
25 26 1 0.282 40000
27 28 1 0.282 40000
29 30 1 0.282 40000
 1  3 1 0.281 15000
 3  5 1 0.281 15000
 5  7 1 0.281 15000
 7  9 1 0.281 15000
 9 11 1 0.281 15000
11 13 1 0.281 15000
13 15 1 0.281 15000
15 17 1 0.281 15000
17 19 1 0.281 15000
19 21 1 0.281 15000
21 23 1 0.281 15000
23 25 1 0.281 15000
25 27 1 0.281 15000
27 29 1 0.281 15000

[ angles ]
 3  5  6 10 90.0 100.0
 4  3  5 1 105.0 90.0
 1  3  5 10 150.0 40.0
 5  7  8 10 90.0 100.0
 6  5  7 1 105.0 90.0
 3  5  7 10 150.0 40.0
 7  9 10 10 90.0 100.0
 8  7  9 1 105.0 90.0
 5  7  9 10 150.0 40.0
 9 11 12 10 90.0 100.0
10  9 11 1 105.0 90.0
 7  9 11 10 150.0 40.0
11 13 14 10 90.0 100.0
12 11 13 1 105.0 90.0
 9 11 13 10 150.0 40.0
13 15 16 10 90.0 100.0
14 13 15 1 105.0 90.0
11 13 15 10 150.0 40.0
15 17 18 10 90.0 100.0
16 15 17 1 105.0 90.0
13 15 17 10 150.0 40.0
17 19 20 10 90.0 100.0
18 17 19 1 105.0 90.0
15 17 19 10 150.0 40.0
19 21 22 10 90.0 100.0
20 19 21 1 105.0 90.0
17 19 21 10 150.0 40.0
21 23 24 10 90.0 100.0
22 21 23 1 105.0 90.0
19 21 23 10 150.0 40.0
23 25 26 10 90.0 100.0
24 23 25 1 105.0 90.0
21 23 25 10 150.0 40.0
25 27 28 10 90.0 100.0
26 25 27 1 105.0 90.0
23 25 27 10 150.0 40.0
27 29 30 10 90.0 100.0
28 27 29 1 105.0 90.0
25 27 29 10 150.0 40.0

