;#include "amber14sb_parmbsc1.ff/forcefield.itp"
;#include "input_smi-g_ABC.itp"

; Include water topology                    
#include "amber14sb_parmbsc1.ff/tip3p.itp"
#include "amber14sb_parmbsc1.ff/ions.itp"

#ifdef POSRES_WATER
; Position restraint for each water oxygen
[ position_restraints ]                     
;  i funct       fcx        fcy        fcz  
   1    1       1000       1000       1000  
#endif
                                            
; Include topology for ions                 
                                            
[ system ]
; Name
input_smi-g in water
                      
[ molecules ]
; Compound	#mols
SOL                4
ZN                 1
CL                 2
