[ atomtypes ]
;NAME   AT.NUM  MASS     CHARGE  PTYPE  SIGMA   EPSILON
c3         6    12.010    -0.153   A     0.3398   0.4510
h1         1     1.008     0.085   A     0.2422   0.0870
h1         1     1.008     0.085   A     0.2422   0.0870
h1         1     1.008     0.085   A     0.2422   0.0870
ca         6    12.010    -0.210   A     0.3315   0.4134
ha         1     1.008     0.162   A     0.2625   0.0674
ca         6    12.010    -0.085   A     0.3315   0.4134
h4         1     1.008     0.144   A     0.2536   0.0674
ca         6    12.010    -0.147   A     0.3315   0.4134
ha         1     1.008     0.145   A     0.2625   0.0674
ca         6    12.010    -0.060   A     0.3315   0.4134
h5         1     1.008     0.161   A     0.2447   0.0674
c          6    12.010     0.650   A     0.3315   0.4134
o          8    16.000    -0.503   A     0.3048   0.6121
os         8    16.000    -0.527   A     0.3156   0.3038
ca         6    12.010     0.398   A     0.3315   0.4134
ca         6    12.010    -0.247   A     0.3315   0.4134
c          6    12.010     0.799   A     0.3315   0.4134
o          8    16.000    -0.493   A     0.3048   0.6121
oh         8    16.000    -0.728   A     0.3243   0.3891
ho         1     1.008     0.440   A     0.0538   0.0197


; Molecule topology/parameters starts below
[ moleculetype ]
; Name               nrexcl
  LIG                  3 


; Atomic types, pdb names  and groups are defined below

[ atoms ]
;AT.NUM   TYPE   RESID   RESNAME PDB-NAME  IGRP    CHRGE    MASS
     1     c3       1      LIG     c01      1    -0.1526    12.0100
     2     h1       1      LIG     h01      1     0.0846     1.0080
     3     h1       1      LIG     h02      1     0.0846     1.0080
     4     h1       1      LIG     h03      1     0.0846     1.0080
     5     ca       1      LIG     c02      2    -0.2102    12.0100
     6     ha       1      LIG     h04      2     0.1615     1.0080
     7     ca       1      LIG     c03      3    -0.0846    12.0100
     8     h4       1      LIG     h05      3     0.1439     1.0080
     9     ca       1      LIG     c04      4    -0.1473    12.0100
    10     ha       1      LIG     h06      4     0.1451     1.0080
    11     ca       1      LIG     c05      5    -0.0599    12.0100
    12     h5       1      LIG     h07      5     0.1611     1.0080
    13     c        1      LIG     c06      6     0.6502    12.0100
    14     o        1      LIG     o07      6    -0.5032    16.0000
    15     os       1      LIG     o08      6    -0.5270    16.0000
    16     ca       1      LIG     c09      7     0.3981    12.0100
    17     ca       1      LIG     c10      7    -0.2470    12.0100
    18     c        1      LIG     c11      8     0.7994    12.0100
    19     o        1      LIG     o12      8    -0.4934    16.0000
    20     oh       1      LIG     o13      8    -0.7278    16.0000
    21     ho       1      LIG     h08      8     0.4399     1.0080


; Stretching parameters are defined below

[ bonds ]
;   I1    I2  TYPE      r0(nm)   K(kJ/nm^2/mol) 
     1    13     1      0.1524     101763.248
     1     2     1      0.1097     157284.929
     1     3     1      0.1097     157284.929
     1     4     1      0.1097     157284.929
     5    16     1      0.1398     158393.689
     5     7     1      0.1398     158393.689
     5     6     1      0.1086     165569.249
     7     9     1      0.1398     158393.689
     7     8     1      0.1089     163238.761
     9    11     1      0.1398     158393.689
     9    10     1      0.1086     165569.249
    11    17     1      0.1398     158393.689
    11    12     1      0.1088     164167.609
    13    14     1      0.1218     273035.289
    13    15     1      0.1358     156038.097
    15    16     1      0.1370     149590.553
    16    17     1      0.1398     158393.689
    17    18     1      0.1491     114080.944
    18    19     1      0.1218     273035.289
    18    20     1      0.1351     160301.593
    20    21     1      0.0973     235772.585


; Bending parameters are defined below

[ angles ]
;   I1    I2    I3  TYPE    theta(deg)  K(kJ/rad^2/mol)
     1    13    14     1      123.20      353.76557
     1    13    15     1      110.72      361.57710
     2     1    13     1      108.22      198.86970
     2     1     3     1      108.46      162.34757
     2     1     4     1      108.46      162.34757
     3     1    13     1      108.22      198.86970
     3     1     4     1      108.46      162.34757
     4     1    13     1      108.22      198.86970
     5    16    15     1      119.20      365.21718
     5    16    17     1      120.02      287.72113
     5     7     9     1      120.02      287.72113
     5     7     8     1      120.34      203.17922
     6     5    16     1      119.88      203.67712
     6     5     7     1      119.88      203.67712
     7     5    16     1      120.02      287.72113
     7     9    11     1      120.02      287.72113
     7     9    10     1      119.88      203.67712
     8     7     9     1      120.34      203.17922
     9    11    17     1      120.02      287.72113
     9    11    12     1      114.65      217.14960
    10     9    11     1      119.88      203.67712
    11    17    16     1      120.02      287.72113
    11    17    18     1      120.33      277.61259
    12    11    17     1      114.65      217.14960
    13    15    16     1      121.15      280.49955
    14    13    15     1      123.25      480.41525
    15    16    17     1      119.20      365.21718
    16    17    18     1      120.33      277.61259
    17    18    19     1      122.60      360.69009
    17    18    20     1      113.45      362.95363
    18    20    21     1      106.55      215.96553
    19    18    20     1      122.10      484.27708


; Proper Torsion parameters are defined below

[ dihedrals ]
;   I1    I2    I3    I4   TYPE   theta(deg) K(kJ/rad^2/mol)     N
     1    13    15    16     9    180.0000     11.2968           2
     2     1    13    14     9      0.0000      3.3472           1
     2     1    13    14     9    180.0000      0.3347           3
     2     1    13    15     9      0.0000      0.0000           2
     3     1    13    14     9      0.0000      3.3472           1
     3     1    13    14     9    180.0000      0.3347           3
     3     1    13    15     9      0.0000      0.0000           2
     4     1    13    14     9      0.0000      3.3472           1
     4     1    13    14     9    180.0000      0.3347           3
     4     1    13    15     9      0.0000      0.0000           2
     5    16    15    13     9    180.0000      2.7196           2
     5    16    17    11     9    180.0000     15.1670           2
     5    16    17    18     9    180.0000     15.1670           2
     5     7     9    11     9    180.0000     15.1670           2
     5     7     9    10     9    180.0000     15.1670           2
     6     5    16    15     9    180.0000     15.1670           2
     6     5    16    17     9    180.0000     15.1670           2
     6     5     7     9     9    180.0000     15.1670           2
     6     5     7     8     9    180.0000     15.1670           2
     7     5    16    15     9    180.0000     15.1670           2
     7     5    16    17     9    180.0000     15.1670           2
     7     9    11    17     9    180.0000     15.1670           2
     7     9    11    12     9    180.0000     15.1670           2
     8     7     5    16     9    180.0000     15.1670           2
     8     7     9    11     9    180.0000     15.1670           2
     8     7     9    10     9    180.0000     15.1670           2
     9     7     5    16     9    180.0000     15.1670           2
     9    11    17    16     9    180.0000     15.1670           2
     9    11    17    18     9    180.0000     15.1670           2
    10     9    11    17     9    180.0000     15.1670           2
    10     9    11    12     9    180.0000     15.1670           2
    11    17    16    15     9    180.0000     15.1670           2
    11    17    18    19     9    180.0000      2.1840           2
    11    17    18    20     9    180.0000      4.1840           2
    12    11    17    16     9    180.0000     15.1670           2
    12    11    17    18     9    180.0000     15.1670           2
    13    15    16    17     9    180.0000      2.7196           2
    14    13    15    16     9    180.0000      5.3346           2
    15    16    17    18     9    180.0000     15.1670           2
    16    17    18    19     9    180.0000      2.1840           2
    16    17    18    20     9    180.0000      4.1840           2
    17    18    20    21     9    180.0000      9.6232           2
    19    18    20    21     9    180.0000      9.6232           2
    19    18    20    21     9      0.0000      7.9496           1


; ImProper Torsion parameters are defined below

[ dihedrals ]
;   I1    I2    I3    I4   TYPE   theta(deg) K(kJ/rad^2/mol)     N
    13    14     1    15     4    180.0000     43.9320           2
    16     5    15    17     4    180.0000      4.6024           2
     5     7    16     6     4    180.0000      4.6024           2
     7     9     5     8     4    180.0000      4.6024           2
     9    11     7    10     4    180.0000      4.6024           2
    11    17     9    12     4    180.0000      4.6024           2
    17    11    16    18     4    180.0000      4.6024           2
    18    19    17    20     4    180.0000     43.9320           2














; (fudged) 14-nonbonded pairs are defined below

[ pairs ]
;   I1   I4  
    1   16  1 
    2   14  1 
    2   15  1 
    3   14  1 
    3   15  1 
    4   14  1 
    4   15  1 
    5   13  1 
    5   11  1 
    5   18  1 
    5   10  1 
    6   15  1 
    6   17  1 
    6    9  1 
    6    8  1 
    7   15  1 
    7   17  1 
    7   12  1 
    8   16  1 
    8   11  1 
    8   10  1 
    9   16  1 
    9   18  1 
   10   17  1 
   10   12  1 
   11   15  1 
   11   19  1 
   11   20  1 
   12   16  1 
   12   18  1 
   13   17  1 
   14   16  1 
   15   18  1 
   16   19  1 
   16   20  1 
   17   21  1 
   19   21  1 


