;
;	File 'topol.top' was generated
;	By user: stud_hpc (1002)
;	On host: hpc4
;	At date: Mon May 27 00:08:15 2024
;
;	This is a standalone topology file
;
;	Created by:
;	                    :-) GROMACS - gmx pdb2gmx, 2021.2 (-:
;	
;	Executable:   /usr/local/gromacs/bin/gmx
;	Data prefix:  /usr/local/gromacs
;	Working dir:  /home/stud_hpc/Desktop/niccolo/GMX/TIP3P/5jpx/min
;	Command line:
;	  gmx pdb2gmx -f 5jpx_ready.pdb -ignh
;	Force field was read from the standard GROMACS share directory.
;

; Include forcefield parameters
;#include "amber99sb-ildn.ff/forcefield.itp"

; Include chain topologies
#include "LIG.itp"

; Include water topology
;#include "amber99sb-ildn.ff/spce.itp"

#ifdef POSRES_WATER
; Position restraint for each water oxygen
[ position_restraints ]
;  i funct       fcx        fcy        fcz
   1    1       1000       1000       1000
#endif

; Include topology for ions
;#include "amber99sb-ildn.ff/ions.itp"

[ system ]
; Name
Protein in water

[ molecules ]
; Compound        #mols
LIG                1
