INSANE! Membrane UpperLeaflet>POPC=1 LowerLeaflet>POPC=1 in water
 2290
    1PCP     CM    1   1.139   0.171   1.020  0.1669 -0.0784  0.2988
    1PCP     OM    2   1.392   0.099   0.930 -0.1649  0.1443  0.0828
    1PCP     NC    3   1.771   0.193   1.030  0.1039 -0.0407 -0.1219
    2PCP     CM    4   0.877   0.176   1.141  0.0357 -0.0532  0.0999
    2PCP     OM    5   0.612   0.254   1.071  0.0213  0.2029 -0.0697
    2PCP     NC    6   0.580   0.529   0.796 -0.0337  0.2249 -0.2173
    3PCP     CM    7   0.854  -0.035   1.330 -0.0959 -0.1248  0.1025
    3PCP     OM    8   0.762  -0.226   1.149  0.0161 -0.1918  0.0447
    3PCP     NC    9   0.515  -0.114   0.861 -0.1064  0.4097  0.0649
    4PCP     CM   10   0.837  -0.165   1.591 -0.2988  0.0049 -0.3919
    4PCP     OM   11   1.033  -0.361   1.545 -0.0094 -0.1227 -0.0765
    4PCP     NC   12   0.973  -0.727   1.643 -0.1143  0.0650  0.2909
    5PCP     CM   13   0.697  -0.256   1.825  0.1189  0.2827  0.1184
    5PCP     OM   14   0.868  -0.121   2.015 -0.1167 -0.2244 -0.1575
    5PCP     NC   15   1.238  -0.050   1.926  0.0917  0.2541  0.1529
    6PCP     CM   16   0.452  -0.299   1.980  0.0659 -0.2506 -0.0094
    6PCP     OM   17   0.411  -0.043   2.108 -0.0678 -0.3964 -0.4277
    6PCP     NC   18   0.581   0.272   1.960  0.0782 -0.1972 -0.0573
    7PCP     CM   19   0.277  -0.506   2.035  0.1633 -0.0506  0.2390
    7PCP     OM   20   0.187  -0.404   2.272 -0.1383  0.1029 -0.2189
    7PCP     NC   21   0.340  -0.394   2.618 -0.3173  0.0404  0.2660
    8PCP     CM   22   0.107  -0.622   1.863 -0.3015 -0.1220  0.1792
    8PCP     OM   23  -0.059  -0.777   2.049  0.2154  0.1130  0.2880
    8PCP     NC   24  -0.353  -0.635   2.275 -0.3186  0.2799  0.0577
    9PCP     CM   25  -0.033  -0.683   1.604  0.0775  0.0095 -0.1746
    9PCP     OM   26   0.022  -0.437   1.469  0.1063 -0.2074  0.2321
    9PCP     NC   27  -0.114  -0.070   1.477  0.1667 -0.0543 -0.2153
   10PCP     CM   28  -0.110  -0.910   1.439 -0.2512 -0.4878 -0.1473
   10PCP     OM   29  -0.191  -1.081   1.650 -0.1265  0.0048 -0.0555
   10PCP     NC   30   0.003  -1.403   1.727  0.1116 -0.2676 -0.2046
   11PCP     CM   31  -0.186  -1.015   1.186 -0.3386  0.1855 -0.2375
   11PCP     OM   32  -0.036  -0.831   1.053  0.2027  0.1480 -0.2305
   11PCP     NC   33  -0.196  -0.476   0.935 -0.3055 -0.1974 -0.0369
   12PCP     CM   34  -0.256  -1.264   1.025 -0.1676  0.3413 -0.0262
   12PCP     OM   35  -0.529  -1.305   1.079  0.1344  0.1317  0.0314
   12PCP     NC   36  -0.866  -1.057   1.009  0.0665 -0.1421 -0.1854
   13PCP     CM   37  -0.252  -1.383   0.763  0.4427  0.1698 -0.0992
   13PCP     OM   38  -0.118  -1.615   0.824 -0.0210 -0.2992  0.0428
   13PCP     NC   39   0.286  -1.699   0.844 -0.1113 -0.0489  0.4858
   14PCP     CM   40  -0.193  -1.215   0.530  0.1099  0.0658  0.1982
   14PCP     OM   41  -0.302  -1.373   0.336  0.2408  0.1413  0.1265
   14PCP     NC   42  -0.304  -1.398  -0.052 -0.2279  0.0570 -0.0235
   15PCP     CM   43  -0.156  -0.965   0.439  0.0366  0.1217 -0.2342
   15PCP     OM   44  -0.039  -0.989   0.176  0.3237 -0.1467  0.1610
   15PCP     NC   45   0.252  -0.824  -0.032  0.1274 -0.1795 -0.1732
   16W        W   46   4.726   3.537   3.206  0.0124 -0.0640 -0.3004
   17W        W   47   5.714   6.230   4.722  0.0972  0.0307  0.0716
   18W        W   48   6.266   0.567   0.090 -0.2214  0.2828  0.0230
   19W        W   49   5.053   2.596   5.370  0.0419  0.1673  0.0643
   20W        W   50   1.446   5.528   6.023 -0.4075 -0.1869 -0.1403
   21W        W   51   4.888   1.901   4.437 -0.1407 -0.2998 -0.0043
   22W        W   52   6.255   2.419   0.309 -0.0851  0.1068 -0.0462
   23W        W   53   1.022   1.822   1.083 -0.1699 -0.1642 -0.2799
   24W        W   54   0.997   0.137   3.204 -0.1163  0.0614  0.1707
   25W        W   55   5.512   0.900   1.527 -0.2391 -0.2175 -0.0649
   26W        W   56   3.288   2.487   2.452  0.1112 -0.1651  0.1517
   27W        W   57   6.406   3.662   0.795 -0.2412  0.2149 -0.0856
   28W        W   58   1.526   0.881   3.160 -0.0736 -0.1910 -0.1200
   29W        W   59   5.414   5.595   2.798 -0.2501 -0.1604 -0.1087
   30W        W   60   5.719   3.770   2.091  0.1860 -0.0190 -0.1727
   31W        W   61   1.557   6.093   3.913 -0.3033 -0.0454 -0.1060
   32W        W   62   0.375   4.701   2.158  0.1078 -0.0394 -0.1454
   33W        W   63   2.295   1.449   4.257  0.0475  0.1745  0.4156
   34W        W   64   3.224   0.015   5.318  0.3127  0.0901  0.1091
   35W        W   65   1.866   4.790   1.855 -0.1602  0.0626 -0.0918
   36W        W   66   5.945   6.013   5.101  0.2285  0.2781  0.1558
   37W        W   67   6.190   0.510   5.294 -0.0634  0.1628 -0.0061
   38W        W   68   0.908   1.218   1.908 -0.0325  0.1840  0.1169
   39W        W   69   5.663   5.871   4.180 -0.1252  0.0343 -0.2776
   40W        W   70   5.881   0.381   0.323 -0.1289  0.0480 -0.1723
   41W        W   71   3.112   4.608   6.115 -0.0434  0.1652 -0.0734
   42W        W   72   2.738   4.244   3.913 -0.0344 -0.0366 -0.0732
   43W        W   73   4.166   6.346   4.901 -0.0410 -0.0827 -0.0413
   44W        W   74   5.554   3.733   1.302  0.0687 -0.0519  0.0528
   45W        W   75   0.973   2.048   6.196  0.2176 -0.1842  0.1031
   46W        W   76   1.588   0.557   0.770  0.1405  0.1386 -0.0073
   47W        W   77   4.113   6.370   0.430  0.0089 -0.2077 -0.0014
   48W        W   78   4.978   1.493   1.121 -0.1280  0.1730 -0.2387
   49W        W   79   2.677   0.465   3.210 -0.0149  0.2608  0.2535
   50W        W   80   2.384   2.122   5.544 -0.0385  0.2137  0.1015
   51W        W   81   0.679   0.640   3.461 -0.0644  0.0403  0.1063
   52W        W   82   1.173   2.130   0.327  0.1779  0.0544 -0.2569
   53W        W   83   5.949   6.155   3.708 -0.1747  0.0343 -0.2804
   54W        W   84   3.713   5.116   0.828 -0.3011  0.1779 -0.0600
   55W        W   85   0.494   0.222   5.532 -0.0230  0.1231 -0.1656
   56W        W   86   2.141   2.407   0.209 -0.1786  0.1181 -0.0289
   57W        W   87   5.377   5.123   5.941 -0.1180 -0.0718  0.4096
   58W        W   88   5.040   4.677   4.530  0.2424  0.2430 -0.0733
   59W        W   89   1.970   0.616   3.052 -0.0227  0.1126 -0.0164
   60W        W   90   3.747   5.559   6.458  0.0681 -0.0875  0.2878
   61W        W   91   1.565   0.428   5.337  0.0279 -0.0128 -0.3447
   62W        W   92   0.009   0.846   6.211  0.2831 -0.1403  0.1342
   63W        W   93   0.237   0.885   3.242  0.1245 -0.3166 -0.1535
   64W        W   94   6.020   2.782   0.525  0.0174 -0.2226  0.1830
   65W        W   95   3.031   3.126   6.305 -0.0015  0.1410  0.0258
   66W        W   96   2.424   5.778   5.753  0.0720  0.1472 -0.0953
   67W        W   97   0.406   0.887   2.216  0.0714 -0.0141 -0.0216
   68W        W   98   2.412   0.919   3.101 -0.0294 -0.1208  0.0263
   69W        W   99   2.266   2.509   4.047 -0.0166  0.0301 -0.2902
   70W        W  100   3.746   5.041   5.857 -0.0129  0.0287 -0.2986
   71W        W  101   3.874   6.377   3.192 -0.2432 -0.1517 -0.0239
   72W        W  102   3.529   5.233   5.491  0.2006  0.0996  0.4479
   73W        W  103   5.401   1.200   1.173  0.1880 -0.1080 -0.1609
   74W        W  104   2.012   3.322   3.373  0.1764 -0.0351 -0.0878
   75W        W  105   5.162   3.695   3.329 -0.2145  0.0719 -0.1869
   76W        W  106   4.074   3.272   0.514  0.0079  0.4633  0.1581
   77W        W  107   4.115   2.995   4.534 -0.0210  0.0885 -0.2028
   78W        W  108   1.620   4.537   3.300  0.4305 -0.1384 -0.2261
   79W        W  109   1.376   1.213   2.041  0.2862  0.2005 -0.1004
   80W        W  110   0.934   1.125   5.371 -0.2011  0.1194  0.0288
   81W        W  111   0.694   0.915   4.883  0.3539  0.0303  0.1622
   82W        W  112   4.510   6.135   0.468  0.0414  0.1840  0.0006
   83W        W  113   2.762   4.029   0.092  0.0215 -0.2416 -0.1437
   84W        W  114   0.789   5.082   0.546 -0.0089  0.1898  0.2359
   85W        W  115   4.221   5.058   2.146 -0.1073 -0.0884 -0.1193
   86W        W  116   3.226   0.686   6.182  0.0739 -0.1659 -0.0324
   87W        W  117   5.053   5.801   4.831 -0.3507 -0.1493 -0.3970
   88W        W  118   3.522   4.708   5.292  0.2316 -0.2008 -0.4425
   89W        W  119   0.453   5.143   2.545 -0.2456  0.2455 -0.0440
   90W        W  120   1.325   1.643   1.527  0.1850 -0.0619  0.0368
   91W        W  121   2.809   0.600   1.864  0.2142  0.1066 -0.2042
   92W        W  122   1.378   2.885   1.913 -0.2562 -0.0637  0.1618
   93W        W  123   1.659   4.498   4.838  0.0605 -0.1896 -0.1327
   94W        W  124   5.850   0.619   4.886  0.2868  0.1630  0.0110
   95W        W  125   3.844   4.648   4.902 -0.0600 -0.2595  0.4512
   96W        W  126   6.392   2.080   3.107 -0.0380 -0.3482 -0.1519
   97W        W  127   2.934   4.042   6.062  0.0562  0.0782  0.0558
   98W        W  128   1.027   4.165   5.905  0.0222  0.3238 -0.0439
   99W        W  129   6.346   6.254   4.879 -0.0221  0.0232 -0.2082
  100W        W  130   6.014   4.651   1.100 -0.2050  0.1155 -0.0645
  101W        W  131   5.951   5.038   2.464  0.0754  0.0842  0.2898
  102W        W  132   0.992   5.434   3.773  0.1554 -0.0073 -0.1106
  103W        W  133   3.448   3.387   5.465 -0.0154 -0.1929 -0.3276
  104W        W  134   1.923   2.450   2.981  0.0668  0.4041  0.1583
  105W        W  135   1.922   3.763   4.325 -0.1245  0.1003  0.3170
  106W        W  136   5.440   0.983   0.617  0.2160  0.1333 -0.0792
  107W        W  137   4.735   1.485   0.679  0.2446  0.1038  0.2225
  108W        W  138   4.693   1.787   4.880  0.2650 -0.2841 -0.2316
  109W        W  139   0.349   0.338   6.023 -0.0752  0.1821  0.2390
  110W        W  140   4.378   2.550   0.214 -0.2015  0.1009 -0.0003
  111W        W  141   0.447   6.416   3.201 -0.0731 -0.1250 -0.2991
  112W        W  142   1.614   5.176   0.993 -0.0560 -0.0896  0.1127
  113W        W  143   3.585   6.229   4.960 -0.1102 -0.0928  0.3268
  114W        W  144   0.789   2.227   4.792 -0.4910  0.3075 -0.2329
  115W        W  145   2.771   0.284   6.174 -0.2336 -0.0777 -0.1090
  116W        W  146   3.062   2.552   0.724  0.3571 -0.2995  0.1614
  117W        W  147   2.471   3.195   0.127 -0.0394  0.1500 -0.3786
  118W        W  148   5.695   0.308   3.413 -0.0334  0.0477 -0.0352
  119W        W  149   5.480   5.908   3.637 -0.2633  0.0850  0.6427
  120W        W  150   2.901   1.488   4.931  0.1548 -0.2167 -0.1978
  121W        W  151   0.929   2.959   1.169  0.1292  0.2786  0.0628
  122W        W  152   5.812   2.332   0.542 -0.0455  0.1463 -0.1338
  123W        W  153   4.621   5.444   1.037 -0.0719  0.1036  0.1362
  124W        W  154   6.433   2.593   3.820 -0.0064  0.2023 -0.1868
  125W        W  155   1.313   0.510   1.284  0.0833  0.0415  0.0562
  126W        W  156   1.792   5.856   3.113  0.1746 -0.1501  0.0985
  127W        W  157   1.498   4.872   0.178 -0.0054 -0.0388 -0.0400
  128W        W  158   3.206   3.221   4.505  0.1782 -0.0849  0.2029
  129W        W  159   5.786   6.347   4.174 -0.1743  0.0803  0.0829
  130W        W  160   4.099   2.743   3.176  0.1157  0.0400  0.3108
  131W        W  161   6.310   4.871   5.956  0.3040 -0.0419  0.1911
  132W        W  162   2.818   2.542   4.138  0.0639 -0.0335 -0.1479
  133W        W  163   4.755   4.742   3.242  0.0388 -0.1899 -0.0038
  134W        W  164   4.612   1.355   2.741  0.1528 -0.0690 -0.1865
  135W        W  165   0.581   2.287   6.080 -0.1038  0.2081 -0.4322
  136W        W  166   0.682   5.997   2.347  0.1338 -0.1975 -0.0971
  137W        W  167   4.865   5.422   5.027  0.1360 -0.4653 -0.1042
  138W        W  168   5.122   4.756   2.762  0.0965 -0.1937  0.2983
  139W        W  169   4.669   0.786   1.162 -0.1791 -0.2536 -0.0364
  140W        W  170   2.629   5.865   2.117  0.1083 -0.0963 -0.1065
  141W        W  171   6.016   3.733   4.110 -0.2527  0.0180 -0.2419
  142W        W  172   4.609   1.694   1.898  0.1230 -0.1333 -0.3044
  143W        W  173   3.270   0.331   4.920 -0.1178 -0.3268 -0.0668
  144W        W  174   0.885   0.819   4.428  0.1584 -0.1357 -0.2691
  145W        W  175   3.537   1.676   6.067 -0.0587 -0.0339  0.2187
  146W        W  176   0.345   3.239   5.849 -0.2939  0.1134  0.2760
  147W        W  177   2.651   0.441   1.123 -0.0375  0.1045  0.0136
  148W        W  178   0.191   3.095   3.719 -0.1571  0.3833 -0.0915
  149W        W  179   4.130   4.637   0.209  0.0092 -0.0625 -0.0630
  150W        W  180   6.123   3.516   1.329  0.0589  0.0038 -0.1380
  151W        W  181   5.657   2.854   5.242  0.1897 -0.0393  0.3978
  152W        W  182   2.904   2.867   3.759  0.1427 -0.0177  0.1239
  153W        W  183   4.073   1.693   2.526  0.0297  0.0876 -0.0062
  154W        W  184   3.471   1.681   0.580 -0.0046  0.1327  0.1106
  155W        W  185   3.790   6.299   5.405  0.5349  0.2393  0.2021
  156W        W  186   5.616   0.207   4.557 -0.0763 -0.2163 -0.0452
  157W        W  187   6.386   2.072   6.432 -0.2744  0.1669  0.0010
  158W        W  188   5.687   3.947   4.420  0.5162 -0.0827  0.0187
  159W        W  189   1.001   3.143   2.140 -0.1648 -0.1032  0.3595
  160W        W  190   2.712   5.680   4.968  0.1459  0.0202  0.1578
  161W        W  191   2.123   1.558   2.729 -0.3605  0.4731 -0.1716
  162W        W  192   2.896   3.907   1.394 -0.1048 -0.2707 -0.4686
  163W        W  193   5.252   0.625   5.590 -0.0630 -0.0289 -0.0843
  164W        W  194   1.576   0.092   3.013 -0.3593 -0.0621 -0.2051
  165W        W  195   2.810   6.285   0.043 -0.3453 -0.4080  0.2052
  166W        W  196   4.775   5.257   1.552  0.1559 -0.1144 -0.1292
  167W        W  197   4.690   6.452   1.892  0.0241 -0.4653  0.1551
  168W        W  198   6.262   1.922   5.677 -0.0535  0.0938 -0.1638
  169W        W  199   2.410   3.937   2.142  0.1516 -0.0061 -0.0027
  170W        W  200   4.508   2.075   0.260  0.2189 -0.1196 -0.1757
  171W        W  201   6.032   2.768   2.350 -0.2488 -0.0926 -0.0684
  172W        W  202   1.260   3.704   1.709 -0.2566 -0.1044 -0.2139
  173W        W  203   1.531   6.011   1.241 -0.1138 -0.0968  0.1058
  174W        W  204   0.398   2.343   2.414  0.3128  0.0784  0.1801
  175W        W  205   0.173   2.180   3.577 -0.2039 -0.1346 -0.2752
  176W        W  206   3.281   1.089   0.075 -0.0529 -0.0381 -0.0429
  177W        W  207   0.964   0.842   0.910  0.2495  0.0495  0.0624
  178W        W  208   2.936   6.107   0.571 -0.1296  0.0247 -0.0919
  179W        W  209   0.258   1.647   4.463  0.3986 -0.0714  0.2136
  180W        W  210   3.023   4.444   1.435 -0.2414  0.0014 -0.0583
  181W        W  211   0.094   0.437   0.937 -0.2947 -0.2166 -0.0002
  182W        W  212   0.011   3.930   3.323  0.1450 -0.1757  0.0051
  183W        W  213   6.231   3.160   0.983  0.0100  0.0513  0.0114
  184W        W  214   3.724   4.595   2.611  0.1708  0.0022 -0.1811
  185W        W  215   2.357   5.678   3.495 -0.1567  0.0556 -0.0237
  186W        W  216   5.394   2.103   5.366  0.1185 -0.1157  0.1897
  187W        W  217   2.875   3.993   2.462  0.1291 -0.0805 -0.0626
  188W        W  218   4.175   0.681   1.474 -0.0814 -0.0692  0.0072
  189W        W  219   0.348   2.073   0.358 -0.0964 -0.1113 -0.0631
  190W        W  220   2.555   1.977   5.105 -0.0351 -0.0157 -0.4230
  191W        W  221   1.356   2.797   2.876 -0.2013 -0.1375 -0.1205
  192W        W  222   5.351   1.710   2.130  0.0547 -0.2098  0.3225
  193W        W  223   3.853   3.629   5.200  0.0077 -0.0134 -0.0208
  194W        W  224   5.021   2.612   2.499  0.0106  0.3659 -0.2925
  195W        W  225   1.740   3.080   3.822 -0.1433 -0.2277 -0.2302
  196W        W  226   6.163   4.799   2.010  0.1245  0.4862  0.1379
  197W        W  227   3.501   1.669   2.244 -0.0391 -0.1442  0.0098
  198W        W  228   3.641   4.543   6.209 -0.0491 -0.0885 -0.1976
  199W        W  229   1.368   4.231   1.121  0.0553 -0.0337 -0.1213
  200W        W  230   2.556   4.121   0.546  0.1870 -0.0717 -0.1924
  201W        W  231   2.862   0.708   4.671 -0.2593  0.1474  0.2650
  202W        W  232   2.756   2.090   5.986 -0.3303  0.0714  0.1758
  203W        W  233   1.402   2.075   3.937 -0.0643  0.0555 -0.0886
  204W        W  234   2.500   2.172   4.319 -0.3468 -0.2800 -0.0576
  205W        W  235   1.843   2.592   6.275  0.2696 -0.2351  0.1627
  206W        W  236   4.776   0.058   6.196  0.0569 -0.2566  0.2742
  207W        W  237   5.171   5.500   3.432  0.2423 -0.2246 -0.0397
  208W        W  238   3.960   2.918   5.881 -0.0485 -0.2414 -0.2151
  209W        W  239   2.371   4.658   3.028 -0.1061 -0.2673  0.0396
  210W        W  240   4.543   3.573   1.182  0.0454 -0.1121 -0.2387
  211W        W  241   3.592   1.066   5.337 -0.0661 -0.0857  0.1431
  212W        W  242   0.965   4.022   6.401 -0.2206 -0.2515 -0.5032
  213W        W  243   1.714   2.342   5.372  0.0215 -0.3315  0.4266
  214W        W  244   5.999   2.217   6.100  0.1188  0.3142  0.2360
  215W        W  245   3.489   3.656   6.160  0.0795 -0.0246 -0.3253
  216W        W  246   5.329   1.472   0.786 -0.2077 -0.2496  0.0935
  217W        W  247   1.597   0.035   4.187  0.0586  0.1189  0.3097
  218W        W  248   4.271   5.149   4.439  0.2023  0.0816  0.0711
  219W        W  249   2.348   1.372   6.378 -0.0100  0.0769  0.0169
  220W        W  250   2.426   0.683   4.400 -0.3858 -0.1537  0.1882
  221W        W  251   5.946   3.254   6.000 -0.1363 -0.0534  0.2348
  222W        W  252   5.107   5.488   4.484  0.1240 -0.1626  0.0033
  223W        W  253   4.536   3.188   1.939  0.1902 -0.0006  0.0982
  224W        W  254   5.576   3.209   2.055  0.0036 -0.1889  0.2091
  225W        W  255   5.664   2.772   0.834 -0.2042  0.0697  0.0676
  226W        W  256   5.520   4.013   0.300  0.0711  0.0088  0.2550
  227W        W  257   5.340   1.196   5.524  0.0821 -0.2103  0.0491
  228W        W  258   4.550   5.494   4.637 -0.4811 -0.2696  0.1089
  229W        W  259   1.710   6.265   0.192  0.2269 -0.3131  0.0786
  230W        W  260   3.802   5.515   3.947 -0.1344  0.3463  0.2646
  231W        W  261   2.775   4.278   2.911 -0.1558 -0.0633 -0.0731
  232W        W  262   1.459   3.739   4.313 -0.0062  0.2485 -0.0626
  233W        W  263   3.072   0.516   2.345 -0.0432  0.0904  0.4314
  234W        W  264   2.873   1.036   2.206  0.0919 -0.2552  0.0404
  235W        W  265   1.471   1.730   4.848  0.0072  0.3598  0.2329
  236W        W  266   6.301   2.454   4.850  0.0669 -0.1228 -0.0984
  237W        W  267   1.971   1.025   5.606  0.4901  0.1736  0.1525
  238W        W  268   1.612   3.195   5.162 -0.0709  0.0571  0.1502
  239W        W  269   4.355   6.174   5.305 -0.2891  0.1833  0.0096
  240W        W  270   2.210   6.239   0.003  0.1902  0.1684 -0.1138
  241W        W  271   1.739   1.039   4.127  0.5905  0.0846  0.1925
  242W        W  272   5.073   4.152   1.038 -0.2259  0.0914  0.3158
  243W        W  273   0.847   5.658   4.677  0.2921  0.0528  0.0808
  244W        W  274   4.653   4.458   2.311 -0.1949 -0.2198  0.0772
  245W        W  275   1.205   5.662   4.267 -0.1722 -0.0512  0.0109
  246W        W  276   6.306   0.383   6.066 -0.0517  0.2053  0.1988
  247W        W  277   4.354   5.448   3.455  0.0084 -0.2488 -0.0375
  248W        W  278   4.654   4.016   3.324 -0.1034  0.1999 -0.0386
  249W        W  279   4.196   1.556   1.567  0.0905  0.0812 -0.3223
  250W        W  280   5.859   4.187   3.917  0.1564  0.2085  0.1207
  251W        W  281   2.152   5.691   4.554  0.2353 -0.3404 -0.0976
  252W        W  282   6.456   6.423   0.034  0.0034 -0.3561 -0.1654
  253W        W  283   2.405   2.518   5.290 -0.1623  0.0855  0.3664
  254W        W  284   0.913   3.738   3.916 -0.3809 -0.3048  0.0030
  255W        W  285   4.194   0.879   0.976  0.1246  0.0726  0.2675
  256W        W  286   2.928   1.982   5.531  0.2535  0.0360  0.2293
  257W        W  287   3.859   2.715   0.538  0.0161  0.0715  0.0718
  258W        W  288   1.992   0.377   4.729 -0.3883  0.1868 -0.0283
  259W        W  289   3.969   1.563   0.404 -0.0624  0.3430 -0.1123
  260W        W  290   2.164   2.269   3.432  0.0844 -0.0875 -0.2570
  261W        W  291   4.787   3.784   4.822 -0.1317  0.0973 -0.1010
  262W        W  292   0.675   2.844   0.721  0.0238 -0.0726  0.3194
  263W        W  293   1.201   6.001   4.628  0.1382 -0.2603  0.0162
  264W        W  294   2.054   5.957   1.252 -0.1249  0.1511  0.2092
  265W        W  295   5.615   0.176   6.417  0.0795  0.0672  0.3000
  266W        W  296   6.378   3.031   5.648  0.1124  0.1360  0.0528
  267W        W  297   5.591   4.314   5.978  0.0367 -0.4273  0.2416
  268W        W  298   5.828   5.480   5.113  0.2707 -0.3220  0.2062
  269W        W  299   4.413   4.380   3.610 -0.1063 -0.1371 -0.0484
  270W        W  300   0.152   4.670   6.427 -0.1285  0.1727  0.1765
  271W        W  301   1.574   5.847   0.401 -0.1615  0.0104  0.2541
  272W        W  302   4.172   4.501   1.255 -0.1375 -0.0130 -0.1879
  273W        W  303   0.108   4.025   4.721 -0.1046 -0.0647  0.0293
  274W        W  304   2.873   0.360   3.783 -0.0455  0.3379  0.3006
  275W        W  305   0.406   6.410   1.403  0.0343  0.0504  0.0580
  276W        W  306   4.674   2.945   5.264 -0.0995  0.0986  0.0412
  277W        W  307   1.981   4.738   0.152  0.1080 -0.1871 -0.0889
  278W        W  308   6.045   5.322   2.091  0.1398 -0.3165  0.2448
  279W        W  309   1.426   4.730   5.201  0.1361  0.3691  0.0036
  280W        W  310   3.728   0.280   0.520  0.1180 -0.1288 -0.0184
  281W        W  311   4.414   0.462   3.472 -0.1312  0.2563 -0.0334
  282W        W  312   3.850   0.541   6.171  0.0892 -0.0869  0.0917
  283W        W  313   5.950   2.007   2.884 -0.1649 -0.2583 -0.0184
  284W        W  314   4.563   0.196   2.636  0.1484 -0.2226  0.1657
  285W        W  315   4.861   3.164   1.069 -0.0885 -0.4169 -0.0573
  286W        W  316   6.009   0.182   5.677  0.0421  0.2349  0.0014
  287W        W  317   2.265   3.814   4.738 -0.1971 -0.0284  0.1856
  288W        W  318   0.088   1.721   2.207 -0.0180  0.0583  0.1914
  289W        W  319   5.558   2.027   0.906 -0.0575  0.2120 -0.3011
  290W        W  320   3.439   2.112   1.245 -0.2611 -0.0535  0.1154
  291W        W  321   5.301   2.311   4.442  0.0473  0.0840 -0.2713
  292W        W  322   5.499   0.000   5.412  0.3794 -0.0820  0.0036
  293W        W  323   4.126   3.033   3.652 -0.1721 -0.0153 -0.1350
  294W        W  324   5.409   0.689   4.566  0.1194 -0.0390 -0.0542
  295W        W  325   0.383   1.771   3.154 -0.0930  0.1287 -0.1163
  296W        W  326   2.256   2.169   6.096 -0.0796  0.5138  0.1639
  297W        W  327   0.035   1.619   0.324 -0.2387 -0.1589  0.1689
  298W        W  328   5.229   0.545   6.074 -0.0212  0.4073 -0.0168
  299W        W  329   2.764   1.215   0.097 -0.1221  0.2845  0.1941
  300W        W  330   4.774   5.315   5.650 -0.0195  0.0647  0.0162
  301W        W  331   0.959   0.286   1.695 -0.1539  0.0533  0.0316
  302W        W  332   3.489   5.805   4.714 -0.1446 -0.2905  0.4393
  303W        W  333   1.313   5.498   4.722 -0.0089  0.1509 -0.0619
  304W        W  334   2.432   1.148   2.620  0.2402 -0.0075 -0.1386
  305W        W  335   0.633   0.424   4.782  0.1181  0.0708  0.0326
  306W        W  336   5.746   5.645   3.206  0.0510 -0.1579 -0.1551
  307W        W  337   5.045   1.921   0.834 -0.3200 -0.1362  0.0330
  308W        W  338   6.109   5.870   2.888  0.1306 -0.4311 -0.1870
  309W        W  339   2.643   5.270   2.354 -0.0209  0.1075  0.1921
  310W        W  340   0.263   3.904   2.494 -0.1506 -0.0955  0.0289
  311W        W  341   5.117   4.150   3.160  0.0106 -0.1151  0.1402
  312W        W  342   5.985   4.516   2.472  0.3820 -0.1063  0.1663
  313W        W  343   3.426   3.577   4.782 -0.0761  0.0371  0.0317
  314W        W  344   1.632   5.874   2.236 -0.4320  0.0299 -0.1143
  315W        W  345   3.272   0.812   1.835 -0.1723  0.1616 -0.0740
  316W        W  346   0.431   3.951   0.082 -0.1790 -0.0709 -0.3627
  317W        W  347   2.441   4.041   1.107 -0.2523 -0.1630  0.3102
  318W        W  348   2.836   4.947   1.258  0.3088 -0.1673 -0.2744
  319W        W  349   4.992   5.274   0.195  0.2738 -0.1265  0.0507
  320W        W  350   5.119   4.264   5.106 -0.0703  0.1842 -0.2096
  321W        W  351   4.017   3.499   1.197 -0.0126  0.2352 -0.1024
  322W        W  352   3.892   0.798   0.547  0.1671 -0.1729  0.1842
  323W        W  353   5.576   0.084   2.961  0.0069  0.3137  0.0543
  324W        W  354   1.089   5.866   2.074 -0.1376 -0.1080  0.3502
  325W        W  355   0.293   5.483   5.338  0.1130  0.0493  0.0595
  326W        W  356   3.058   6.335   6.103  0.2914 -0.1596 -0.3900
  327W        W  357   1.682   3.675   5.245 -0.1482  0.4349 -0.1923
  328W        W  358   5.023   0.447   4.691 -0.3740 -0.0183  0.2645
  329W        W  359   5.114   5.583   2.042 -0.1975  0.1456  0.4239
  330W        W  360   4.967   5.577   2.555  0.1175  0.0010  0.1535
  331W        W  361   5.145   3.098   5.134  0.2924  0.0275 -0.2321
  332W        W  362   0.340   3.240   4.568 -0.2302 -0.4798 -0.0074
  333W        W  363   6.148   2.808   5.201 -0.2452  0.0398 -0.0972
  334W        W  364   1.048   5.021   1.372  0.0384 -0.0787 -0.3927
  335W        W  365   2.329   4.268   2.626 -0.0910  0.1051 -0.1332
  336W        W  366   1.747   5.395   4.413  0.0535 -0.0663 -0.1005
  337W        W  367   1.907   0.267   2.486 -0.2242 -0.0350 -0.2276
  338W        W  368   4.775   3.551   0.147  0.1667  0.4207  0.0288
  339W        W  369   3.973   5.907   4.931 -0.0120  0.0858  0.0152
  340W        W  370   3.723   4.741   3.091 -0.3869  0.2854 -0.0216
  341W        W  371   5.025   5.760   3.874 -0.0831  0.0402 -0.3941
  342W        W  372   4.757   1.972   1.281  0.4435  0.0251  0.2509
  343W        W  373   5.828   3.980   1.652  0.0103 -0.0751  0.1582
  344W        W  374   0.711   3.877   2.768  0.1189  0.0822  0.0539
  345W        W  375   1.098   1.297   1.080  0.1029  0.1299  0.1830
  346W        W  376   2.864   5.942   4.122  0.3052  0.1035 -0.1124
  347W        W  377   0.896   0.263   0.602  0.0272 -0.3376 -0.2004
  348W        W  378   1.629   1.551   2.932 -0.0179 -0.5572 -0.1015
  349W        W  379   4.768   4.693   1.556 -0.1319  0.0197  0.1966
  350W        W  380   3.467   2.851   0.334 -0.2147  0.0198 -0.1993
  351W        W  381   3.261   2.802   2.101 -0.0562  0.0111  0.1239
  352W        W  382   1.637   0.368   2.048  0.0341  0.1243 -0.0270
  353W        W  383   1.904   2.764   5.278 -0.0541  0.2821  0.0876
  354W        W  384   2.591   1.763   2.711 -0.2741  0.1966 -0.2696
  355W        W  385   0.991   0.000   4.657  0.0178  0.1358 -0.0052
  356W        W  386   0.191   5.184   1.295 -0.2954  0.3374 -0.0144
  357W        W  387   4.751   0.385   5.664 -0.3572  0.0423 -0.2309
  358W        W  388   2.817   6.249   2.711 -0.2974  0.4363  0.2564
  359W        W  389   1.258   5.094   5.701 -0.0727 -0.0640  0.2764
  360W        W  390   4.370   6.341   2.314  0.0520  0.2097 -0.1560
  361W        W  391   1.441   0.352   3.866  0.1122 -0.1554 -0.0447
  362W        W  392   3.307   1.301   0.906  0.0344 -0.0089 -0.3840
  363W        W  393   0.911   2.624   3.715 -0.1445  0.2583 -0.0376
  364W        W  394   5.321   4.860   0.428 -0.0922  0.1562 -0.0221
  365W        W  395   0.437   5.491   6.046 -0.3183  0.0528 -0.1148
  366W        W  396   0.837   2.243   5.359  0.0877  0.0396  0.2507
  367W        W  397   4.459   4.148   5.860 -0.0325 -0.0343  0.2902
  368W        W  398   4.251   5.265   0.261 -0.3711 -0.2009 -0.4152
  369W        W  399   1.508   2.594   4.984  0.1306  0.1595  0.0578
  370W        W  400   1.033   2.403   5.789 -0.0709  0.0572 -0.0085
  371W        W  401   4.377   4.881   3.583 -0.3148 -0.0177  0.1096
  372W        W  402   6.127   5.137   4.383 -0.1676  0.0006  0.3896
  373W        W  403   0.058   2.232   0.742  0.1463 -0.0342 -0.0683
  374W        W  404   6.442   1.209   2.332  0.0052 -0.0078  0.0380
  375W        W  405   5.541   4.161   4.924 -0.3159 -0.3608 -0.2405
  376W        W  406   3.866   5.112   3.590 -0.2540 -0.1929  0.2957
  377W        W  407   1.052   1.247   0.564  0.0235 -0.2144  0.1083
  378W        W  408   3.846   6.314   2.210  0.0884  0.2824 -0.2161
  379W        W  409   0.051   0.562   1.428  0.1076 -0.1960  0.2322
  380W        W  410   3.923   2.341   4.657  0.3112 -0.0762  0.0545
  381W        W  411   2.866   1.520   0.798 -0.0430  0.0312  0.0228
  382W        W  412   2.718   2.995   4.907  0.2065  0.1004  0.2056
  383W        W  413   2.442   2.891   4.416  0.0391 -0.2023 -0.0847
  384W        W  414   4.006   0.094   1.358 -0.0827 -0.1554  0.1471
  385W        W  415   5.469   4.350   2.883  0.1491  0.0931 -0.0602
  386W        W  416   0.895   2.530   2.726 -0.2818  0.0726  0.0193
  387W        W  417   6.006   5.614   0.855  0.0228  0.4046  0.1215
  388W        W  418   1.870   5.396   0.618 -0.1722 -0.0135 -0.2653
  389W        W  419   1.978   5.794   5.607  0.2795  0.1900  0.1903
  390W        W  420   1.824   4.429   5.257 -0.1483  0.3160  0.0049
  391W        W  421   6.027   2.168   2.344  0.4764  0.0968 -0.1471
  392W        W  422   0.212   4.588   4.834  0.2647  0.1569 -0.1188
  393W        W  423   3.973   3.657   2.490 -0.0574 -0.1063 -0.0173
  394W        W  424   1.452   3.642   1.227  0.1687  0.0509 -0.2480
  395W        W  425   4.876   2.291   3.201  0.0534 -0.0102 -0.0834
  396W        W  426   1.845   4.031   4.865  0.2280  0.2461  0.4928
  397W        W  427   3.349   0.002   3.032 -0.0599  0.1632  0.2420
  398W        W  428   3.333   3.781   1.780  0.4238 -0.0617  0.2290
  399W        W  429   0.722   4.308   0.352  0.0673  0.1104 -0.2544
  400W        W  430   3.019   6.355   3.867  0.3041  0.4213 -0.0198
  401W        W  431   2.946   0.275   2.805  0.0288  0.2017  0.4638
  402W        W  432   3.109   3.741   0.402  0.1444 -0.0282  0.0468
  403W        W  433   3.003   5.198   2.717  0.0662 -0.0953  0.0459
  404W        W  434   3.750   5.994   0.138  0.1237 -0.0668 -0.0902
  405W        W  435   4.606   0.456   1.589 -0.1886 -0.1985  0.1342
  406W        W  436   1.681   3.282   4.317 -0.0581 -0.2437 -0.4245
  407W        W  437   1.322   5.184   0.522 -0.2127  0.0506  0.0101
  408W        W  438   3.730   6.084   1.685  0.1792  0.4782 -0.0751
  409W        W  439   4.862   1.335   5.575 -0.2317 -0.0928 -0.0323
  410W        W  440   4.461   0.750   5.224  0.0819  0.2193 -0.0010
  411W        W  441   2.643   5.252   0.928 -0.0201  0.2845  0.1292
  412W        W  442   4.859   2.926   3.715 -0.0669 -0.1749 -0.1267
  413W        W  443   3.327   1.185   3.481  0.1714  0.2085  0.1019
  414W        W  444   2.754   1.683   6.417  0.1725  0.0901  0.2034
  415W        W  445   1.166   5.082   6.208  0.2969 -0.0261  0.0797
  416W        W  446   2.861   2.147   4.706 -0.1929 -0.0350  0.3546
  417W        W  447   2.992   3.477   4.918 -0.0351 -0.0473  0.1230
  418W        W  448   0.341   0.201   0.574 -0.1838 -0.0894  0.1435
  419W        W  449   2.063   5.984   0.518  0.0115  0.0228  0.1497
  420W        W  450   2.465   1.337   1.015  0.0372  0.2903 -0.0356
  421W        W  451   3.442   0.840   3.073  0.4690 -0.1537  0.0427
  422W        W  452   5.795   4.554   1.735  0.2753 -0.2559 -0.0112
  423W        W  453   0.981   1.721   5.274  0.1283 -0.2588 -0.0413
  424W        W  454   6.236   6.222   1.930  0.3734  0.1708 -0.1622
  425W        W  455   0.796   3.338   0.805 -0.0963 -0.1991 -0.1279
  426W        W  456   3.838   5.002   0.370  0.1522  0.0188 -0.0279
  427W        W  457   3.148   3.843   5.264  0.2985 -0.3186 -0.1993
  428W        W  458   3.492   5.473   4.324  0.2435 -0.1536  0.3156
  429W        W  459   2.451   1.312   1.492  0.0312  0.3460 -0.0186
  430W        W  460   4.266   0.356   0.555 -0.2083  0.0913 -0.2404
  431W        W  461   1.787   0.397   1.549  0.2683 -0.1677  0.0973
  432W        W  462   2.763   6.217   4.531  0.1995 -0.0570 -0.1904
  433W        W  463   6.403   0.087   2.260  0.0546  0.1335  0.0131
  434W        W  464   4.708   0.956   4.248 -0.2243  0.2305 -0.2123
  435W        W  465   2.123   1.289   2.200  0.4325  0.0200  0.2757
  436W        W  466   2.304   6.152   4.346  0.2643 -0.0995 -0.0491
  437W        W  467   3.078   4.452   5.045 -0.1172  0.1122 -0.6050
  438W        W  468   2.135   3.151   2.526 -0.0097 -0.0428 -0.0317
  439W        W  469   5.538   0.903   2.817 -0.1091  0.2072  0.2119
  440W        W  470   0.190   5.758   0.621 -0.0259 -0.0868  0.1157
  441W        W  471   1.408   1.891   5.815  0.1134 -0.1277  0.4773
  442W        W  472   1.222   1.470   2.495 -0.0127  0.1395  0.0998
  443W        W  473   0.734   1.928   3.466 -0.3343  0.0106  0.2359
  444W        W  474   5.619   0.395   5.901  0.0418 -0.1987  0.1394
  445W        W  475   1.519   0.349   5.841  0.0779  0.1672 -0.1932
  446W        W  476   0.350   5.929   4.061 -0.2867  0.2112  0.0993
  447W        W  477   2.803   6.337   5.576  0.2083 -0.2900 -0.3055
  448W        W  478   0.132   3.100   3.141 -0.2828 -0.0730 -0.0244
  449W        W  479   6.069   5.930   0.497 -0.1795 -0.0251 -0.2998
  450W        W  480   4.769   4.288   4.696  0.3054  0.0527 -0.2311
  451W        W  481   6.084   5.958   4.531  0.2604  0.1066 -0.7238
  452W        W  482   5.184   5.289   0.724  0.0563 -0.1852 -0.2103
  453W        W  483   3.189   2.092   2.084  0.0622  0.0781  0.2454
  454W        W  484   3.434   5.137   3.986  0.0299 -0.1134 -0.1058
  455W        W  485   6.152   4.332   3.488  0.0808  0.6385 -0.0936
  456W        W  486   4.809   5.902   2.200  0.0072  0.1636  0.0514
  457W        W  487   1.358   0.016   1.420  0.1003  0.4992  0.0906
  458W        W  488   5.900   5.561   0.131 -0.0803  0.1971  0.0176
  459W        W  489   2.046   4.591   4.050 -0.1589  0.1748 -0.4172
  460W        W  490   2.568   6.229   6.067  0.1464 -0.0422 -0.0290
  461W        W  491   3.855   0.294   4.122 -0.1012  0.1158  0.3920
  462W        W  492   2.615   0.811   1.468 -0.0001 -0.1272  0.2370
  463W        W  493   1.102   3.067   5.238  0.0155  0.2465 -0.1754
  464W        W  494   3.261   2.815   4.130 -0.2016  0.0608 -0.0245
  465W        W  495   0.623   3.517   5.262  0.1713 -0.0663  0.3053
  466W        W  496   5.775   0.743   1.054 -0.0190  0.1346  0.0083
  467W        W  497   0.168   3.526   1.588 -0.2015  0.2284 -0.0431
  468W        W  498   4.152   1.868   5.920 -0.2138 -0.3078 -0.1424
  469W        W  499   5.174   6.136   5.556 -0.0009  0.2226  0.1633
  470W        W  500   3.174   1.917   6.355  0.0025  0.3117  0.0684
  471W        W  501   0.723   2.573   4.244 -0.0115 -0.1135 -0.1664
  472W        W  502   1.538   5.465   0.085 -0.1151  0.1282 -0.0978
  473W        W  503   1.517   3.426   3.415  0.0543  0.0517  0.1145
  474W        W  504   1.045   5.556   5.614 -0.0636 -0.0929  0.2476
  475W        W  505   4.713   4.622   0.517 -0.1283  0.2382  0.0553
  476W        W  506   0.971   4.458   4.403 -0.1208  0.0130  0.0491
  477W        W  507   2.895   5.101   1.750  0.0272  0.1121 -0.0442
  478W        W  508   3.986   5.502   4.654  0.3040 -0.0125  0.1313
  479W        W  509   5.306   5.986   1.533 -0.2483 -0.1289  0.0148
  480W        W  510   5.184   1.514   4.688  0.0745  0.0022 -0.0147
  481W        W  511   0.854   4.409   2.118 -0.1410 -0.2262  0.0218
  482W        W  512   0.323   6.207   5.429  0.0818  0.1002 -0.1993
  483W        W  513   4.515   4.302   0.080 -0.0609  0.0404  0.2015
  484W        W  514   5.103   1.917   2.545 -0.0066  0.1561 -0.0711
  485W        W  515   6.156   2.452   2.704 -0.0962  0.0269  0.2579
  486W        W  516   2.094   6.075   4.912  0.0993  0.0953 -0.1906
  487W        W  517   5.598   5.365   4.392 -0.1164  0.2390  0.0164
  488W        W  518   5.416   0.682   1.976  0.1949 -0.0910 -0.2805
  489W        W  519   1.537   1.054   0.833 -0.0003  0.2225 -0.2746
  490W        W  520   0.750   2.313   0.602  0.2855  0.0693  0.1783
  491W        W  521   6.253   6.203   2.560  0.2264 -0.1456  0.0252
  492W        W  522   0.130   3.532   4.899  0.3336  0.1455 -0.2751
  493W        W  523   3.318   1.470   5.457  0.0998  0.1348 -0.1049
  494W        W  524   1.273   4.984   2.476  0.0077  0.1439 -0.0501
  495W        W  525   4.002   4.959   6.337  0.0881  0.0136 -0.2041
  496W        W  526   3.805   4.152   0.864 -0.2824 -0.1148  0.2422
  497W        W  527   0.218   2.397   4.247 -0.0722 -0.0329 -0.1095
  498W        W  528   1.579   0.691   4.949 -0.0524 -0.0318  0.4001
  499W        W  529   2.653   6.122   3.641  0.3103 -0.1285 -0.0880
  500W        W  530   0.541   3.256   0.409 -0.1266  0.1723 -0.0203
  501W        W  531   4.242   4.895   5.888  0.1794  0.0542  0.1376
  502W        W  532   1.126   3.604   5.968  0.0839 -0.0085  0.1908
  503W        W  533   1.423   4.026   6.176 -0.0570  0.0397  0.0092
  504W        W  534   6.354   4.073   3.855  0.3655  0.1023  0.2505
  505W        W  535   3.569   3.865   3.869  0.0060  0.5832 -0.0646
  506W        W  536   0.092   2.690   0.988 -0.1706 -0.2367  0.0507
  507W        W  537   3.778   1.263   2.377  0.2764  0.0071  0.1371
  508W        W  538   3.806   5.539   0.551  0.0714  0.0818 -0.2533
  509W        W  539   2.865   5.630   3.641  0.1099 -0.0609  0.1639
  510W        W  540   1.308   3.698   4.838  0.1189 -0.0022  0.2417
  511W        W  541   3.641   1.527   1.224  0.0095  0.0171  0.0986
  512W        W  542   5.452   5.276   2.406 -0.0405  0.1591  0.2176
  513W        W  543   5.957   5.587   3.695  0.1787 -0.0037 -0.2498
  514W        W  544   5.188   2.753   4.358  0.3682 -0.0033 -0.1768
  515W        W  545   4.115   2.214   0.549  0.1054 -0.0358  0.0311
  516W        W  546   2.829   2.632   2.249  0.0481 -0.0366 -0.2213
  517W        W  547   3.880   0.850   2.818 -0.0964 -0.1124 -0.2007
  518W        W  548   1.222   0.699   0.465  0.0210  0.0264 -0.1792
  519W        W  549   5.101   3.066   0.156  0.2219  0.1140 -0.1601
  520W        W  550   1.652   2.472   1.010 -0.2132  0.1263 -0.1775
  521W        W  551   5.951   4.148   0.065 -0.1971  0.0035  0.1968
  522W        W  552   3.401   5.814   1.982 -0.0777 -0.0724 -0.0795
  523W        W  553   0.855   0.247   3.725  0.0931  0.1074  0.0268
  524W        W  554   3.287   2.796   3.306 -0.0725  0.3666  0.0752
  525W        W  555   0.681   6.254   0.401 -0.1287 -0.3151  0.3330
  526W        W  556   0.410   3.054   1.856 -0.1653  0.2332  0.2449
  527W        W  557   3.341   5.519   3.632  0.0169  0.0623  0.0033
  528W        W  558   4.992   3.347   0.664 -0.3217 -0.1634  0.2856
  529W        W  559   4.639   1.067   2.363  0.2192 -0.3460 -0.0649
  530W        W  560   1.313   0.673   2.350 -0.2879  0.0065  0.4011
  531W        W  561   0.365   2.180   5.541  0.1411 -0.0325  0.2790
  532W        W  562   5.423   6.451   3.787  0.0507 -0.0007  0.0515
  533W        W  563   6.329   3.257   4.144 -0.0331  0.0498  0.1733
  534W        W  564   3.048   2.508   1.760 -0.0472  0.1289 -0.3310
  535W        W  565   5.204   1.074   3.359  0.1103 -0.1055  0.0837
  536W        W  566   3.874   5.360   3.123 -0.1082  0.1568 -0.1565
  537W        W  567   0.884   5.987   6.091 -0.0356  0.1728  0.2479
  538W        W  568   1.455   4.186   4.496 -0.1974 -0.0723 -0.0476
  539W        W  569   0.915   1.175   0.023  0.2108  0.3266  0.2110
  540W        W  570   4.586   0.926   5.728 -0.2596  0.1668 -0.1287
  541W        W  571   3.329   5.905   4.003 -0.0038  0.0315  0.1091
  542W        W  572   0.041   2.570   3.271 -0.0278  0.1308  0.1259
  543W        W  573   2.874   4.597   0.415 -0.0485  0.0346  0.1323
  544W        W  574   0.491   5.928   3.118  0.1697 -0.4480 -0.3089
  545W        W  575   1.146   4.880   0.897  0.1585 -0.2926  0.2180
  546W        W  576   5.505   4.827   4.509  0.1956  0.1406  0.2601
  547W        W  577   2.014   0.998   5.104  0.0245 -0.0380  0.1680
  548W        W  578   2.732   3.258   2.316  0.0100  0.0171 -0.3340
  549W        W  579   4.917   1.282   5.047  0.0615 -0.3574  0.1750
  550W        W  580   0.373   4.287   1.169  0.3385  0.1847  0.3068
  551W        W  581   6.186   4.531   5.581  0.1093 -0.0328  0.0021
  552W        W  582   0.850   1.565   6.096  0.3458  0.0778  0.3144
  553W        W  583   4.840   2.954   1.533  0.0441 -0.2046 -0.0231
  554W        W  584   2.978   3.044   0.882  0.1924  0.2098 -0.4476
  555W        W  585   5.585   1.572   5.041  0.1847  0.0011  0.0065
  556W        W  586   5.199   1.499   5.882  0.0366 -0.1073  0.2697
  557W        W  587   3.535   3.805   2.750 -0.2331 -0.3127 -0.1283
  558W        W  588   2.936   0.525   5.329  0.3114  0.0732 -0.1311
  559W        W  589   4.409   5.315   6.202  0.1535 -0.2682  0.2103
  560W        W  590   0.018   1.093   2.848 -0.1916 -0.2969  0.2721
  561W        W  591   6.065   1.420   5.560 -0.0840 -0.1799 -0.0339
  562W        W  592   3.025   1.621   1.946 -0.0593  0.1012  0.2955
  563W        W  593   3.265   2.405   5.457 -0.0115 -0.0627  0.2372
  564W        W  594   1.256   3.680   0.231 -0.0207 -0.0509  0.0163
  565W        W  595   5.794   6.243   1.752  0.1556 -0.0635 -0.0646
  566W        W  596   2.582   4.262   4.687 -0.0227 -0.2092 -0.1166
  567W        W  597   6.415   2.709   1.899  0.2180  0.2875  0.0782
  568W        W  598   3.401   5.284   1.711  0.2185 -0.2215 -0.2032
  569W        W  599   2.116   1.363   4.760 -0.0188 -0.0575  0.0594
  570W        W  600   3.252   2.159   5.932 -0.0644 -0.0885  0.1160
  571W        W  601   5.770   6.014   6.336 -0.3430 -0.1255  0.0315
  572W        W  602   1.192   5.184   4.284  0.1045 -0.0493  0.2616
  573W        W  603   4.095   3.520   1.948  0.2548  0.1786  0.1354
  574W        W  604   5.206   0.933   2.450 -0.2636 -0.0779  0.1350
  575W        W  605   5.562   4.436   0.759  0.1677  0.1163 -0.1630
  576W        W  606   4.191   0.051   1.802 -0.0185 -0.2226  0.0934
  577W        W  607   6.332   0.318   4.806  0.0818 -0.1923 -0.1401
  578W        W  608   3.523   4.297   4.958 -0.0982  0.4511 -0.2802
  579W        W  609   3.033   5.442   4.028 -0.1086 -0.1077 -0.0436
  580W        W  610   5.916   0.195   2.542 -0.1071 -0.0450  0.1100
  581W        W  611   3.159   4.647   5.571  0.0848 -0.1225  0.2571
  582W        W  612   6.167   0.529   3.381  0.2103  0.0288 -0.1671
  583W        W  613   2.202   2.231   1.209 -0.0431 -0.0688  0.0564
  584W        W  614   1.327   2.351   6.332 -0.2298 -0.4608  0.1191
  585W        W  615   6.372   1.520   3.294  0.0352 -0.1633  0.0430
  586W        W  616   0.724   3.067   4.387 -0.2961 -0.2250  0.1767
  587W        W  617   0.158   4.695   1.327 -0.2953 -0.0173  0.2787
  588W        W  618   6.321   3.541   3.587 -0.0384  0.1593  0.0702
  589W        W  619   4.209   0.519   4.852  0.1874 -0.0274  0.2238
  590W        W  620   4.227   2.313   6.217 -0.1268  0.0108  0.1842
  591W        W  621   5.322   5.616   5.213 -0.0269 -0.1288 -0.0023
  592W        W  622   4.019   4.649   4.431  0.0938 -0.2280 -0.0043
  593W        W  623   3.868   2.403   0.155 -0.0589 -0.3105 -0.2440
  594W        W  624   4.513   1.859   6.297  0.1555 -0.0812  0.1504
  595W        W  625   2.988   4.982   5.217  0.0071  0.1267  0.0743
  596W        W  626   4.730   2.283   0.709 -0.0313  0.1662 -0.0762
  597W        W  627   5.271   4.938   6.382 -0.0953  0.1876 -0.2164
  598W        W  628   5.675   2.412   2.610  0.0306 -0.0801 -0.1586
  599W        W  629   1.095   3.640   2.175 -0.2222 -0.0058 -0.0074
  600W        W  630   0.461   1.065   3.642 -0.2426  0.2838  0.4065
  601W        W  631   3.490   1.538   2.729 -0.2584  0.1279 -0.0314
  602W        W  632   1.924   4.068   6.096 -0.3438 -0.0752 -0.0673
  603W        W  633   2.874   2.283   2.739 -0.0983 -0.2827 -0.2687
  604W        W  634   6.330   0.004   3.427  0.0916 -0.1072  0.1504
  605W        W  635   1.570   3.510   2.052  0.1058 -0.1120  0.2398
  606W        W  636   4.118   4.724   3.959  0.0965 -0.0868  0.3673
  607W        W  637   4.171   4.607   2.423  0.0480 -0.0186  0.0839
  608W        W  638   5.582   1.261   3.708 -0.0858 -0.0575 -0.0062
  609W        W  639   1.839   5.532   1.306  0.2957 -0.3418 -0.3372
  610W        W  640   3.505   2.717   4.546  0.1344  0.1076  0.0004
  611W        W  641   1.302   1.712   3.497  0.1281 -0.3322  0.0582
  612W        W  642   3.350   3.984   2.274  0.1495 -0.0777 -0.4318
  613W        W  643   3.453   0.806   4.138  0.2419  0.1516 -0.0108
  614W        W  644   0.972   1.115   5.941  0.1360 -0.1368 -0.0120
  615W        W  645   2.073   5.841   1.846  0.1632  0.0597  0.1515
  616W        W  646   6.428   4.873   2.578 -0.0743 -0.0167  0.1103
  617W        W  647   3.572   1.986   0.209  0.2378  0.1571 -0.0059
  618W        W  648   4.209   5.253   3.880 -0.2921 -0.1304 -0.3440
  619W        W  649   1.712   2.841   2.578  0.2704 -0.1152 -0.2650
  620W        W  650   4.519   6.125   6.157  0.1507  0.1798  0.1416
  621W        W  651   4.984   3.583   2.443  0.3837 -0.3681  0.0098
  622W        W  652   2.426   6.216   1.709  0.0372  0.1780  0.1910
  623W        W  653   3.356   0.809   0.613  0.0527  0.0725  0.2886
  624W        W  654   4.133   1.931   5.422 -0.3409 -0.3218 -0.2589
  625W        W  655   3.982   0.486   2.006  0.2825 -0.3699 -0.0283
  626W        W  656   6.100   0.034   2.978 -0.3637  0.0453 -0.2194
  627W        W  657   2.977   3.633   6.343 -0.1361 -0.0407 -0.1680
  628W        W  658   3.557   2.526   1.418 -0.1316 -0.0221  0.1589
  629W        W  659   0.214   4.189   2.918 -0.1072 -0.0636  0.0003
  630W        W  660   2.584   5.589   4.308 -0.2815  0.0806 -0.0512
  631W        W  661   4.369   3.696   6.036  0.0163 -0.2751  0.3042
  632W        W  662   2.446   2.537   3.084  0.0419  0.0227  0.1722
  633W        W  663   2.777   1.212   6.062  0.2975 -0.0328 -0.0596
  634W        W  664   3.314   6.168   0.190  0.0625  0.1688 -0.1376
  635W        W  665   3.554   3.171   5.957  0.1435  0.0565 -0.1051
  636W        W  666   2.516   4.814   3.792  0.1751 -0.1053 -0.3419
  637W        W  667   5.922   4.132   5.334  0.2342  0.0232  0.0033
  638W        W  668   4.224   1.104   4.865 -0.0907  0.0345 -0.1881
  639W        W  669   3.303   2.023   2.585 -0.1552 -0.1232  0.0159
  640W        W  670   3.663   0.569   3.705  0.1369  0.2432 -0.0056
  641W        W  671   3.304   6.113   0.964  0.1138  0.2133  0.1116
  642W        W  672   3.869   2.695   4.982 -0.1233  0.1251 -0.0234
  643W        W  673   4.395   5.529   5.191 -0.3421 -0.4588 -0.1432
  644W        W  674   3.738   0.213   5.073  0.0475  0.1561  0.0539
  645W        W  675   6.220   3.750   1.804 -0.0312  0.1448  0.1477
  646W        W  676   5.326   0.461   2.566  0.1322 -0.1965  0.3877
  647W        W  677   5.698   0.536   5.434  0.0654 -0.2470  0.1923
  648W        W  678   0.303   0.987   0.124  0.0180  0.1652 -0.2406
  649W        W  679   4.582   5.950   2.661 -0.0175  0.3414  0.1315
  650W        W  680   5.481   2.746   2.185  0.0438  0.1130 -0.1211
  651W        W  681   4.396   4.533   1.918 -0.1325  0.2147 -0.0689
  652W        W  682   0.530   2.815   0.093 -0.0499  0.0267  0.1888
  653W        W  683   3.357   2.410   6.433  0.0433  0.3136  0.1920
  654W        W  684   5.818   6.255   2.242 -0.1195  0.2995  0.1154
  655W        W  685   0.046   6.406   1.021 -0.0152 -0.0032 -0.0118
  656W        W  686   0.286   6.015   1.061  0.1163  0.4260 -0.0757
  657W        W  687   6.039   0.741   1.487  0.2778 -0.1350 -0.1212
  658W        W  688   1.237   5.900   0.008  0.0002  0.1068 -0.3221
  659W        W  689   1.498   5.098   1.543  0.0166 -0.1028  0.0428
  660W        W  690   1.078   4.101   1.472 -0.0404  0.0543 -0.2478
  661W        W  691   1.303   2.149   1.353 -0.0781 -0.1843  0.1174
  662W        W  692   2.491   3.623   6.298  0.1863 -0.3916 -0.0506
  663W        W  693   1.052   1.227   4.743 -0.2607 -0.0229 -0.4005
  664W        W  694   4.793   0.840   3.411  0.0552  0.0715 -0.0788
  665W        W  695   1.350   2.142   0.846 -0.3138 -0.3055 -0.0334
  666W        W  696   3.211   5.595   5.675 -0.0365  0.1578 -0.0178
  667W        W  697   5.981   3.979   4.859  0.1797  0.2032  0.1493
  668W        W  698   3.897   2.705   4.028  0.1635  0.3186  0.0416
  669W        W  699   5.935   0.863   1.945 -0.0322  0.1291 -0.0371
  670W        W  700   3.516   5.064   6.325  0.1692  0.3376 -0.1707
  671W        W  701   0.938   2.357   1.070  0.1221 -0.0519  0.3004
  672W        W  702   4.728   2.853   4.501 -0.2017  0.0475  0.1433
  673W        W  703   1.585   1.197   4.770 -0.3062  0.0966 -0.3486
  674W        W  704   4.276   0.680   4.394 -0.0798  0.0580 -0.2821
  675W        W  705   1.132   0.627   6.135 -0.0374  0.1037  0.2588
  676W        W  706   5.333   5.974   3.122  0.1232 -0.0053 -0.3338
  677W        W  707   1.775   0.049   6.198  0.0093  0.0865  0.0336
  678W        W  708   2.486   4.923   0.090 -0.0194  0.0960  0.0506
  679W        W  709   6.377   5.256   5.126 -0.1178 -0.0955  0.2899
  680W        W  710   4.710   0.501   3.050  0.0634  0.0175 -0.2158
  681W        W  711   0.268   2.880   4.162 -0.0338 -0.0450 -0.0431
  682W        W  712   1.539   2.418   5.862  0.2490  0.0460  0.2184
  683W        W  713   6.452   1.082   3.659  0.3955 -0.1762  0.4830
  684W        W  714   2.962   1.884   4.272 -0.2983 -0.1232 -0.3351
  685W        W  715   1.672   1.386   1.226  0.0692 -0.0602  0.1984
  686W        W  716   2.381   0.412   1.637 -0.1000 -0.0059  0.2262
  687W        W  717   5.166   0.096   1.604 -0.4040 -0.1137 -0.4065
  688W        W  718   2.158   1.615   1.289  0.1209 -0.0218  0.2187
  689W        W  719   5.980   4.186   3.068  0.0965 -0.3533 -0.0571
  690W        W  720   1.600   3.550   0.632  0.1388  0.0967  0.1945
  691W        W  721   2.271   5.604   3.000  0.0367 -0.0637 -0.1989
  692W        W  722   5.907   2.855   1.867  0.1780 -0.0425 -0.2172
  693W        W  723   4.274   4.474   5.509  0.0204 -0.0784  0.0655
  694W        W  724   0.057   3.046   0.597  0.1732 -0.0841 -0.0322
  695W        W  725   2.820   5.120   0.457 -0.0825 -0.2559  0.2029
  696W        W  726   5.868   4.025   2.490  0.1170 -0.2295  0.3356
  697W        W  727   2.284   5.737   5.207 -0.2956  0.1346 -0.0985
  698W        W  728   3.416   1.661   3.329  0.2010  0.1539  0.1744
  699W        W  729   3.639   3.819   5.623 -0.0634  0.0755 -0.1495
  700W        W  730   0.450   1.264   6.117 -0.0391  0.1285 -0.0020
  701W        W  731   3.587   1.975   1.805  0.0784 -0.1223 -0.1338
  702W        W  732   1.641   0.878   1.374  0.3498  0.0021 -0.1118
  703W        W  733   4.084   3.976   1.234  0.0325  0.0905 -0.2538
  704W        W  734   3.815   3.145   0.135  0.3301 -0.1733  0.2767
  705W        W  735   4.720   4.062   0.603 -0.0154  0.0126  0.1595
  706W        W  736   4.948   5.074   2.391 -0.3115  0.1314 -0.0233
  707W        W  737   6.456   5.884   5.153 -0.2085  0.0674 -0.0042
  708W        W  738   0.729   1.473   4.444  0.0555  0.2226 -0.1568
  709W        W  739   0.613   0.345   2.980  0.1417 -0.1649  0.0851
  710W        W  740   4.776   1.738   5.899 -0.0010  0.0590  0.2614
  711W        W  741   2.878   5.129   3.623  0.1614  0.3760 -0.3955
  712W        W  742   1.961   0.205   3.731 -0.2777  0.2200 -0.0513
  713W        W  743   2.237   2.794   1.241 -0.2036  0.4078  0.2600
  714W        W  744   2.217   1.900   4.069  0.0559  0.0371  0.0668
  715W        W  745   2.386   6.014   2.797 -0.0475  0.0254  0.0418
  716W        W  746   4.848   6.138   1.330  0.1846 -0.1087  0.0157
  717W        W  747   1.576   5.082   3.483 -0.0173  0.6154 -0.0840
  718W        W  748   4.568   5.646   0.567  0.1643  0.0205 -0.0981
  719W        W  749   0.109   1.517   5.421 -0.0643 -0.5104  0.3493
  720W        W  750   5.888   0.599   6.299 -0.0070 -0.2578 -0.0647
  721W        W  751   1.738   3.874   0.118 -0.0444 -0.0619  0.0224
  722W        W  752   4.607   1.776   2.384 -0.1616  0.2058  0.0975
  723W        W  753   5.696   1.930   4.315  0.1276  0.4418 -0.3015
  724W        W  754   5.383   4.329   4.484 -0.1315  0.2434 -0.2449
  725W        W  755   2.611   2.709   0.958 -0.0892  0.2162 -0.2023
  726W        W  756   3.656   1.982   3.621 -0.2155 -0.3999 -0.0401
  727W        W  757   1.345   1.795   4.366 -0.3333 -0.0223  0.0347
  728W        W  758   6.181   4.861   3.340  0.0088  0.0556 -0.0485
  729W        W  759   6.202   2.994   3.528  0.0471 -0.1360 -0.0420
  730W        W  760   6.076   6.390   0.738  0.0118 -0.0576 -0.1465
  731W        W  761   2.501   0.819   0.383  0.1334  0.1826 -0.0583
  732W        W  762   0.574   2.005   2.108 -0.3048  0.1271 -0.1265
  733W        W  763   1.272   3.003   3.582  0.0423  0.0307  0.1997
  734W        W  764   0.116   2.121   1.900 -0.1154 -0.1131  0.2117
  735W        W  765   5.459   4.688   2.449 -0.1717 -0.1471  0.1761
  736W        W  766   0.240   0.088   4.561  0.1108  0.0459  0.1208
  737W        W  767   4.069   6.247   6.337 -0.1917 -0.0150 -0.3126
  738W        W  768   2.844   3.558   3.344  0.1789 -0.3298  0.1451
  739W        W  769   6.070   0.436   2.092 -0.0084 -0.3711 -0.2508
  740W        W  770   1.539   5.401   2.512 -0.4271 -0.1406  0.0052
  741W        W  771   4.149   4.079   3.227  0.0142  0.1884 -0.0891
  742W        W  772   3.144   3.787   4.265  0.0841 -0.2963 -0.1432
  743W        W  773   5.973   3.939   6.041 -0.0130  0.0405 -0.1519
  744W        W  774   2.857   5.516   1.487  0.0681  0.1797 -0.1593
  745W        W  775   2.915   1.065   0.629  0.1881  0.1898 -0.0323
  746W        W  776   0.866   1.710   0.124 -0.1730 -0.0580  0.0920
  747W        W  777   3.374   5.632   2.691  0.0278  0.0279 -0.0650
  748W        W  778   6.329   3.139   4.632  0.2165 -0.0015  0.0817
  749W        W  779   6.062   1.365   3.618 -0.1664  0.4403  0.0101
  750W        W  780   2.531   4.454   1.320  0.2436 -0.4283  0.0321
  751W        W  781   5.135   1.700   5.273  0.1552  0.3504  0.1887
  752W        W  782   1.489   2.507   4.229 -0.1119 -0.0114  0.2792
  753W        W  783   0.131   5.255   5.730  0.2563  0.0131 -0.0966
  754W        W  784   3.776   4.541   0.563  0.0685  0.2160  0.0873
  755W        W  785   5.123   6.062   2.657 -0.0335 -0.1683  0.0845
  756W        W  786   3.972   3.940   5.990  0.0734  0.1000  0.1524
  757W        W  787   2.947   3.336   2.884 -0.1374  0.0577  0.0397
  758W        W  788   3.806   0.945   1.912  0.1137 -0.0766  0.0661
  759W        W  789   4.077   5.959   0.706  0.1090  0.0104 -0.2612
  760W        W  790   3.437   3.876   1.288 -0.0815  0.2512  0.3185
  761W        W  791   2.677   5.006   4.250  0.0403 -0.1145  0.0836
  762W        W  792   2.455   0.752   5.487 -0.2365  0.2398 -0.2158
  763W        W  793   5.814   4.739   3.027  0.1951  0.1340  0.1163
  764W        W  794   1.021   0.022   0.184 -0.1443  0.1516 -0.2017
  765W        W  795   0.675   5.873   0.768  0.0655  0.0392 -0.0581
  766W        W  796   5.408   1.959   0.417 -0.4315  0.1713 -0.3820
  767W        W  797   6.085   0.521   4.375  0.0254  0.1494  0.1758
  768W        W  798   1.892   3.922   1.130  0.1469 -0.1112  0.0930
  769W        W  799   4.287   1.368   2.203  0.1547  0.2656  0.1301
  770W        W  800   2.732   4.695   2.632  0.0756  0.2062  0.2295
  771W        W  801   3.650   3.129   2.343 -0.3562  0.1747  0.0731
  772W        W  802   1.332   6.305   5.035  0.2301  0.1605  0.4590
  773W        W  803   2.377   2.342   4.766 -0.0576  0.1510 -0.1131
  774W        W  804   2.468   0.097   2.518  0.0210 -0.0209  0.0707
  775W        W  805   6.337   5.390   2.548 -0.0793 -0.2831 -0.2239
  776W        W  806   4.082   6.430   0.906 -0.1461 -0.0779  0.1730
  777W        W  807   0.253   3.985   6.113  0.1208 -0.1428 -0.2917
  778W        W  808   1.579   0.575   2.765  0.0150  0.2655 -0.0852
  779W        W  809   3.222   2.339   4.323  0.1445 -0.1000 -0.1017
  780W        W  810   3.579   0.766   2.376 -0.0919  0.0789  0.1550
  781W        W  811   3.911   4.138   5.289  0.2683 -0.0027  0.2762
  782W        W  812   1.766   1.285   1.744  0.0196 -0.1351 -0.1053
  783W        W  813   4.351   1.012   3.616 -0.3562  0.1256 -0.2124
  784W        W  814   1.804   2.041   4.222 -0.1815  0.2330  0.2868
  785W        W  815   4.321   3.647   5.038  0.1140 -0.3440 -0.0745
  786W        W  816   3.105   0.702   1.365  0.0555  0.0123 -0.3030
  787W        W  817   4.460   1.563   0.243  0.0108  0.0012 -0.5136
  788W        W  818   6.224   3.266   1.770  0.1197 -0.1591  0.1747
  789W        W  819   2.055   1.664   1.859 -0.0397 -0.2615  0.0296
  790W        W  820   6.058   6.445   6.212 -0.1357 -0.3984 -0.2290
  791W        W  821   0.338   5.577   2.349 -0.3908 -0.0504  0.0756
  792W        W  822   4.156   4.466   6.178 -0.2086  0.0814  0.0806
  793W        W  823   4.290   4.637   5.045  0.0588 -0.0971  0.0394
  794W        W  824   5.464   1.999   5.965  0.1429 -0.0832  0.1626
  795W        W  825   2.653   4.543   5.858  0.1405  0.1314  0.0825
  796W        W  826   5.095   0.593   1.441 -0.1587 -0.1525 -0.0549
  797W        W  827   5.033   0.151   2.888  0.1890  0.0473  0.1620
  798W        W  828   1.789   2.929   4.728 -0.4683 -0.0390  0.0974
  799W        W  829   5.025   0.856   6.423 -0.1745 -0.0157  0.0314
  800W        W  830   0.663   5.637   1.975 -0.2031 -0.0343 -0.1333
  801W        W  831   4.789   2.457   1.542 -0.0218  0.2413 -0.2069
  802W        W  832   1.489   4.243   2.805 -0.0614 -0.0774 -0.1965
  803W        W  833   4.799   1.405   3.312  0.0957  0.2357  0.2752
  804W        W  834   6.257   1.840   3.674 -0.0949  0.3000  0.1315
  805W        W  835   1.298   3.128   4.749  0.1202 -0.0791 -0.1780
  806W        W  836   5.153   0.114   5.806 -0.0499 -0.0524  0.1267
  807W        W  837   5.438   5.472   0.124 -0.0771  0.1878 -0.0114
  808W        W  838   5.133   4.349   0.547 -0.0765 -0.4140 -0.0982
  809W        W  839   1.631   5.440   5.571 -0.1200  0.0613  0.2510
  810W        W  840   2.645   4.028   5.094  0.0128 -0.0384 -0.0155
  811W        W  841   0.370   1.802   6.407  0.3366  0.0161  0.0255
  812W        W  842   2.475   3.120   0.632  0.1177 -0.2932  0.2497
  813W        W  843   2.627   5.378   0.047  0.4151  0.0753  0.1498
  814W        W  844   1.740   1.309   2.494 -0.0221  0.0553  0.2585
  815W        W  845   2.817   1.941   2.321  0.0625  0.0574  0.0669
  816W        W  846   6.401   4.665   4.346  0.1414 -0.1135  0.2481
  817W        W  847   6.275   4.375   5.026  0.0045  0.0327  0.1756
  818W        W  848   1.090   4.498   6.361  0.0707 -0.0105  0.2084
  819W        W  849   4.023   0.159   3.606 -0.0625  0.1491 -0.1841
  820W        W  850   3.343   6.107   5.599 -0.0171 -0.1795  0.0562
  821W        W  851   0.635   6.293   3.928 -0.1071 -0.4422  0.0227
  822W        W  852   5.638   2.529   1.386  0.0939  0.0504  0.1038
  823W        W  853   0.929   2.661   6.233  0.0205 -0.2090  0.0013
  824W        W  854   0.099   6.222   0.595  0.0147  0.3865  0.2799
  825W        W  855   1.971   1.657   6.078  0.2467 -0.1297  0.0124
  826W        W  856   4.457   0.469   2.222  0.1219 -0.0545 -0.2344
  827W        W  857   2.560   3.672   5.592  0.1037  0.0008 -0.1082
  828W        W  858   2.132   1.516   5.605 -0.1725  0.1372 -0.0274
  829W        W  859   5.617   1.185   4.572 -0.0707 -0.0199 -0.1395
  830W        W  860   4.730   6.330   4.544 -0.2097  0.0285 -0.1402
  831W        W  861   4.453   1.048   1.832  0.1098 -0.2974  0.0005
  832W        W  862   5.778   3.427   1.685 -0.0359  0.0901 -0.1277
  833W        W  863   1.298   1.053   2.688 -0.1054 -0.2712 -0.1046
  834W        W  864   1.657   1.381   5.729 -0.3183 -0.2190  0.3337
  835W        W  865   2.398   4.383   3.573 -0.6054 -0.0442  0.2044
  836W        W  866   3.139   4.193   0.553 -0.1732 -0.1310 -0.3422
  837W        W  867   2.387   0.484   2.812  0.3112  0.1600 -0.1268
  838W        W  868   2.525   1.090   3.979 -0.1523  0.2151 -0.1561
  839W        W  869   5.562   1.707   5.514 -0.1269  0.1593 -0.1485
  840W        W  870   4.438   3.356   5.472  0.0557  0.0762  0.0901
  841W        W  871   6.089   4.893   1.515  0.2995 -0.2658 -0.0834
  842W        W  872   4.966   4.517   0.065  0.1058 -0.1559  0.0870
  843W        W  873   4.940   0.384   5.185  0.0662 -0.0063  0.1114
  844W        W  874   1.371   2.851   6.043 -0.1515 -0.0503 -0.0631
  845W        W  875   4.183   4.549   3.052 -0.2186  0.0229  0.1977
  846W        W  876   4.090   2.339   3.728 -0.0852  0.0942  0.0500
  847W        W  877   5.963   4.237   0.619 -0.2250 -0.0763 -0.2440
  848W        W  878   2.121   5.088   1.024 -0.0585  0.1811  0.2664
  849W        W  879   4.466   5.555   1.994 -0.1807  0.1717 -0.2378
  850W        W  880   3.237   5.274   0.710  0.2542  0.1533 -0.1770
  851W        W  881   2.389   0.350   0.722  0.2718 -0.1289  0.4123
  852W        W  882   3.271   0.997   4.554 -0.0827 -0.1900  0.2457
  853W        W  883   1.962   2.898   4.239  0.0743  0.0464 -0.0511
  854W        W  884   1.505   5.618   1.827 -0.0552  0.1150 -0.1045
  855W        W  885   3.907   1.913   1.385 -0.0273 -0.0188 -0.0048
  856W        W  886   0.636   0.832   6.259 -0.1692 -0.1194 -0.1855
  857W        W  887   0.164   4.243   2.170  0.0626  0.0265 -0.2618
  858W        W  888   0.612   5.849   5.677 -0.1181  0.0352 -0.0486
  859W        W  889   3.029   1.495   2.480 -0.0755 -0.0754 -0.0143
  860W        W  890   3.854   3.065   0.895 -0.0091 -0.0122  0.1151
  861W        W  891   3.249   4.005   6.433  0.3288  0.1507  0.1807
  862W        W  892   0.705   5.768   0.047  0.0788 -0.1254 -0.2033
  863W        W  893   0.671   3.770   6.028  0.0190 -0.1977 -0.0853
  864W        W  894   5.482   3.394   5.449  0.2310  0.2643 -0.1131
  865W        W  895   4.229   5.945   3.307  0.0791 -0.0356  0.1000
  866W        W  896   5.552   3.587   3.590  0.1644 -0.0222  0.0704
  867W        W  897   4.530   3.998   3.858  0.0619  0.2980  0.2355
  868W        W  898   4.163   6.001   1.935  0.0137 -0.0145  0.0226
  869W        W  899   4.721   0.349   4.323 -0.3437 -0.1478  0.0299
  870W        W  900   3.386   5.931   6.152  0.1091 -0.0736 -0.0883
  871W        W  901   0.723   0.644   5.821 -0.0567  0.1190  0.3694
  872W        W  902   2.552   3.210   1.119  0.2764  0.0738 -0.0756
  873W        W  903   4.187   3.198   2.346 -0.1274 -0.2929 -0.0371
  874W        W  904   6.313   2.057   4.534  0.0883  0.1284 -0.0975
  875W        W  905   5.554   5.392   1.878 -0.1550  0.2448 -0.2091
  876W        W  906   6.018   1.899   0.326  0.1737  0.2038 -0.1325
  877W        W  907   2.681   1.916   0.391  0.0440  0.1461  0.2693
  878W        W  908   2.275   2.903   2.101 -0.0925 -0.0532 -0.1574
  879W        W  909   3.802   3.765   1.636 -0.1218 -0.1120 -0.0391
  880W        W  910   2.079   0.565   1.170 -0.1394 -0.3123  0.2519
  881W        W  911   4.439   2.547   3.453 -0.0845  0.0807 -0.3667
  882W        W  912   2.349   6.379   0.470  0.1049 -0.0566 -0.0178
  883W        W  913   2.248   2.809   4.857 -0.2172  0.0190 -0.0630
  884W        W  914   0.340   3.766   5.655  0.0287  0.1622  0.0531
  885W        W  915   1.444   0.165   0.421  0.2704  0.0929 -0.3101
  886W        W  916   4.812   4.651   5.027  0.0910 -0.1348  0.0396
  887W        W  917   3.554   3.393   1.080  0.1920  0.0284  0.2283
  888W        W  918   5.214   2.508   3.900  0.1928 -0.2533  0.1275
  889W        W  919   3.669   4.208   3.436  0.2924  0.1780 -0.1036
  890W        W  920   4.428   2.115   3.993 -0.0736 -0.3041  0.2200
  891W        W  921   4.124   0.893   2.339 -0.2230 -0.1011 -0.0729
  892W        W  922   2.756   5.413   5.988 -0.1220  0.0254 -0.2284
  893W        W  923   0.398   5.657   4.843  0.3989 -0.2750 -0.1725
  894W        W  924   5.270   6.428   3.329  0.1367  0.3302 -0.2585
  895W        W  925   5.361   3.023   3.796  0.1679  0.3642 -0.2307
  896W        W  926   4.855   0.942   2.875  0.1605 -0.2015  0.1334
  897W        W  927   1.797   1.519   4.431 -0.0131  0.1128  0.0548
  898W        W  928   3.284   6.403   2.524  0.2495  0.2234 -0.2246
  899W        W  929   6.240   5.896   3.359  0.0035 -0.3786  0.2852
  900W        W  930   2.311   4.757   4.666 -0.3399 -0.0910  0.0380
  901W        W  931   6.207   4.805   4.776 -0.2529 -0.1842  0.2918
  902W        W  932   5.845   3.274   3.845 -0.0475 -0.1620 -0.2413
  903W        W  933   0.654   0.831   0.457 -0.1592 -0.2822 -0.1176
  904W        W  934   1.165   3.701   0.847  0.1333 -0.0100 -0.1213
  905W        W  935   0.205   1.758   0.802 -0.1323  0.0338 -0.0647
  906W        W  936   5.713   3.696   5.122 -0.0311  0.2647  0.1113
  907W        W  937   4.674   4.814   5.642 -0.1585  0.0738 -0.0402
  908W        W  938   0.916   5.786   1.156 -0.0576  0.1666  0.5196
  909W        W  939   6.123   5.585   5.578 -0.0123 -0.1994 -0.1176
  910W        W  940   6.218   5.915   0.036  0.2675 -0.2586  0.0104
  911W        W  941   3.726   4.083   6.354 -0.0222 -0.0658  0.1931
  912W        W  942   3.323   1.191   6.012  0.0773  0.0716  0.4144
  913W        W  943   4.645   4.395   2.927 -0.2123 -0.0622  0.1430
  914W        W  944   2.048   2.320   0.688 -0.3114  0.1426 -0.0126
  915W        W  945   3.771   5.603   1.544  0.1309  0.1941 -0.0914
  916W        W  946   6.256   5.174   3.815 -0.0242 -0.2404  0.0121
  917W        W  947   4.256   0.134   4.408  0.0088 -0.1492 -0.1470
  918W        W  948   3.351   6.381   1.491  0.0563  0.1037 -0.2860
  919W        W  949   6.056   1.080   6.090  0.4923 -0.0399 -0.1707
  920W        W  950   1.399   1.309   0.217 -0.3374  0.2861 -0.0067
  921W        W  951   4.087   4.151   1.733 -0.0110  0.0648 -0.0241
  922W        W  952   6.113   0.742   5.744 -0.0379 -0.3617  0.0911
  923W        W  953   4.877   6.261   0.131  0.0539 -0.0691 -0.1806
  924W        W  954   0.852   4.572   1.323 -0.3588 -0.2121 -0.0187
  925W        W  955   3.198   5.561   3.136  0.3471  0.0979  0.0407
  926W        W  956   4.890   5.709   3.036  0.2046  0.0602  0.2769
  927W        W  957   6.339   1.007   5.367 -0.2183 -0.2602 -0.1024
  928W        W  958   2.339   6.161   5.475  0.3827  0.1267  0.0120
  929W        W  959   0.713   3.427   3.055  0.1851 -0.0659 -0.2098
  930W        W  960   1.164   0.655   3.568  0.0299 -0.0789 -0.1746
  931W        W  961   0.623   1.294   0.887 -0.2888  0.0032 -0.0851
  932W        W  962   1.849   2.391   3.860 -0.1370 -0.2380  0.3268
  933W        W  963   2.944   1.202   1.707 -0.1048 -0.0872 -0.3491
  934W        W  964   1.782   2.121   2.018  0.0642  0.2106  0.0608
  935W        W  965   5.148   1.563   3.679  0.1958  0.0810  0.1605
  936W        W  966   3.641   0.822   5.744 -0.2078  0.1228 -0.0436
  937W        W  967   6.249   1.520   1.005 -0.1383 -0.2776 -0.1210
  938W        W  968   1.114   0.196   2.721  0.0885 -0.3219  0.1278
  939W        W  969   3.376   4.500   2.290  0.4356 -0.0402 -0.0772
  940W        W  970   3.400   0.435   2.747  0.2459 -0.0099  0.3697
  941W        W  971   1.823   2.087   6.456 -0.2018 -0.1155  0.1580
  942W        W  972   6.007   1.820   5.191  0.3049 -0.2407 -0.1476
  943W        W  973   3.212   6.020   3.544 -0.3223  0.1205  0.2293
  944W        W  974   3.874   5.855   2.830  0.0673  0.3249 -0.2368
  945W        W  975   3.112   5.465   5.220 -0.0193  0.0373  0.0393
  946W        W  976   3.919   5.437   5.316 -0.0751  0.0686 -0.1132
  947W        W  977   6.381   4.084   0.411 -0.1558  0.0037 -0.2475
  948W        W  978   1.793   5.929   4.351 -0.0596 -0.1460 -0.2016
  949W        W  979   6.136   0.957   3.186  0.2983  0.2780  0.2485
  950W        W  980   2.395   5.230   1.466  0.2589 -0.3038 -0.1722
  951W        W  981   0.043   1.206   1.663 -0.0664  0.0327 -0.3534
  952W        W  982   2.236   4.374   1.907 -0.1631 -0.0317 -0.0761
  953W        W  983   4.326   3.138   1.004 -0.0399  0.0131  0.1020
  954W        W  984   4.125   5.096   4.968  0.1386  0.0137 -0.3843
  955W        W  985   2.102   2.960   3.014  0.0752 -0.2640 -0.1760
  956W        W  986   2.706   5.001   5.631  0.1008 -0.2726  0.2766
  957W        W  987   5.865   4.673   5.182  0.0597  0.1348  0.0723
  958W        W  988   0.231   1.840   5.837  0.0702 -0.3600  0.0200
  959W        W  989   2.579   6.387   4.037  0.1021 -0.1867 -0.3968
  960W        W  990   1.003   1.193   4.026  0.0072  0.1726 -0.4207
  961W        W  991   4.463   2.667   4.903 -0.0271  0.0019 -0.0263
  962W        W  992   5.014   0.314   0.090 -0.0779  0.1395 -0.1102
  963W        W  993   6.292   0.887   1.013  0.0138  0.2144 -0.0980
  964W        W  994   2.590   0.324   5.678 -0.1361  0.5453 -0.1344
  965W        W  995   3.174   2.061   0.489 -0.1030  0.1954 -0.2233
  966W        W  996   4.354   1.976   4.493  0.1037  0.0863 -0.3182
  967W        W  997   3.814   0.923   4.433 -0.0770  0.0821 -0.0379
  968W        W  998   2.467   4.064   6.121 -0.1009 -0.0469 -0.0935
  969W        W  999   2.666   0.743   6.378  0.2042 -0.1233  0.0447
  970W        W 1000   6.182   4.687   3.859 -0.1298 -0.0026  0.0935
  971W        W 1001   4.750   2.253   2.675  0.0432 -0.1173  0.2811
  972W        W 1002   2.585   2.504   3.556 -0.2552 -0.1144 -0.1809
  973W        W 1003   3.707   3.282   1.805  0.0020 -0.1834 -0.2220
  974W        W 1004   4.575   1.380   4.599  0.2185 -0.1846  0.1947
  975W        W 1005   1.969   4.840   5.028 -0.1574  0.1527  0.0518
  976W        W 1006   4.549   3.053   3.308  0.0346 -0.0147 -0.1044
  977W        W 1007   2.226   2.855   3.456  0.3286  0.1130 -0.1346
  978W        W 1008   5.387   0.168   4.988 -0.1683  0.2104  0.3149
  979W        W 1009   3.616   1.188   0.401 -0.0274  0.0180 -0.1778
  980W        W 1010   0.086   5.120   4.651 -0.0256 -0.3525  0.0452
  981W        W 1011   3.894   0.681   5.267 -0.0645  0.3531  0.1412
  982W        W 1012   4.644   1.798   5.436  0.2444 -0.1304 -0.1538
  983W        W 1013   0.807   5.409   5.181 -0.0763  0.0207 -0.1454
  984W        W 1014   4.831   3.230   5.694  0.0470 -0.0100 -0.1625
  985W        W 1015   4.729   2.291   4.672 -0.2683  0.3144 -0.2474
  986W        W 1016   5.289   3.621   1.807  0.0923  0.0912  0.1535
  987W        W 1017   0.576   1.562   5.590  0.1226  0.3319  0.3028
  988W        W 1018   4.237   6.248   2.770 -0.1396  0.2588  0.1073
  989W        W 1019   4.914   0.276   3.505  0.1027 -0.2226  0.0020
  990W        W 1020   4.339   1.802   0.647 -0.1919  0.0663 -0.1223
  991W        W 1021   3.693   2.797   6.303  0.0321 -0.1098 -0.0978
  992W        W 1022   5.713   1.540   0.456 -0.1393 -0.1485  0.1475
  993W        W 1023   4.732   0.200   0.494 -0.2724 -0.1806  0.2589
  994W        W 1024   0.724   4.551   0.850  0.4125 -0.1531 -0.3123
  995W        W 1025   4.844   6.190   3.100  0.0281 -0.1107  0.0920
  996W        W 1026   1.937   4.927   3.130  0.1133  0.0400 -0.0767
  997W        W 1027   3.042   1.667   5.948 -0.0715  0.2179  0.0111
  998W        W 1028   3.859   3.689   0.233 -0.0990  0.1315 -0.1479
  999W        W 1029   4.129   0.708   3.905 -0.0717 -0.1570  0.0011
 1000W        W 1030   0.224   6.070   3.512 -0.1644 -0.4473  0.4528
 1001W        W 1031   3.661   3.141   4.331  0.0144  0.2815 -0.1488
 1002W        W 1032   6.217   2.727   6.147  0.2950 -0.1326 -0.0357
 1003W        W 1033   1.945   2.354   4.958 -0.2352  0.2406 -0.1846
 1004W        W 1034   3.544   4.840   1.441  0.1414  0.2842 -0.1203
 1005W        W 1035   4.977   6.024   6.017  0.1091 -0.0017  0.0583
 1006W        W 1036   3.724   3.170   4.911 -0.0967 -0.2215  0.1077
 1007W        W 1037   3.190   1.151   5.059 -0.0269  0.2054 -0.1472
 1008W        W 1038   0.290   6.014   0.200 -0.0083 -0.0746  0.0320
 1009W        W 1039   6.311   3.737   6.450 -0.0198  0.0398  0.3659
 1010W        W 1040   0.941   2.864   5.721 -0.1904 -0.2902 -0.0003
 1011W        W 1041   5.178   5.630   5.662 -0.0052 -0.4347  0.0618
 1012W        W 1042   1.487   0.895   6.446  0.1168  0.2889 -0.0439
 1013W        W 1043   5.989   5.290   5.969 -0.1901  0.3295 -0.1108
 1014W        W 1044   2.042   5.538   6.096 -0.1861  0.3655 -0.0975
 1015W        W 1045   5.589   2.151   6.416  0.1029  0.3752  0.1337
 1016W        W 1046   4.118   1.866   2.008 -0.0677  0.3464 -0.0173
 1017W        W 1047   5.267   1.443   0.286  0.2317  0.1779 -0.0424
 1018W        W 1048   2.661   5.420   5.395 -0.0853 -0.1432  0.0923
 1019W        W 1049   2.816   3.678   1.953  0.0027  0.2236 -0.0511
 1020W        W 1050   1.834   3.122   1.960  0.0658 -0.1279 -0.0262
 1021W        W 1051   4.194   0.605   5.679 -0.3047  0.2100  0.1186
 1022W        W 1052   1.938   5.229   1.705 -0.0136  0.3382  0.3308
 1023W        W 1053   4.252   3.226   1.569 -0.0706  0.2328  0.1607
 1024W        W 1054   0.330   3.967   0.663  0.0142  0.0571  0.3505
 1025W        W 1055   2.022   1.765   3.257 -0.1214 -0.1318  0.1316
 1026W        W 1056   0.585   6.323   5.886  0.0583 -0.1214  0.3060
 1027W        W 1057   3.988   5.630   1.065 -0.2767 -0.0982 -0.0067
 1028W        W 1058   5.215   3.984   2.146 -0.1592  0.2856 -0.0805
 1029W        W 1059   1.428   3.847   5.661 -0.1067  0.0885 -0.1994
 1030W        W 1060   4.704   5.028   2.002  0.2940 -0.1683 -0.2793
 1031W        W 1061   0.800   1.005   2.880  0.1685  0.0989 -0.1315
 1032W        W 1062   3.638   0.415   3.211  0.1254 -0.0153  0.1582
 1033W        W 1063   1.066   5.382   0.913 -0.0427  0.3398 -0.0480
 1034W        W 1064   1.754   5.681   4.910  0.2139 -0.0413 -0.0460
 1035W        W 1065   0.004   0.139   5.466  0.1815  0.1806 -0.0451
 1036W        W 1066   4.288   3.154   4.994  0.0205 -0.1466  0.1117
 1037W        W 1067   2.814   3.357   4.080  0.1799  0.0322  0.0496
 1038W        W 1068   3.404   3.306   3.013  0.1879 -0.1866 -0.0658
 1039W        W 1069   1.160   4.161   3.997  0.0406 -0.0802 -0.3443
 1040W        W 1070   4.277   5.591   4.230  0.0756  0.1793 -0.1102
 1041W        W 1071   2.064   3.505   0.417  0.0297 -0.1055  0.0992
 1042W        W 1072   2.515   3.765   4.310 -0.0955 -0.3490 -0.0566
 1043W        W 1073   5.175   6.072   4.229 -0.1690 -0.0236 -0.0156
 1044W        W 1074   3.967   4.889   5.407  0.3976  0.0797 -0.0584
 1045W        W 1075   2.217   5.218   4.267  0.0933 -0.1400  0.0211
 1046W        W 1076   0.100   3.058   2.269 -0.0326  0.1081  0.0533
 1047W        W 1077   3.019   2.038   0.936 -0.2542  0.1637 -0.0064
 1048W        W 1078   0.817   6.399   5.239  0.0081 -0.1836 -0.0669
 1049W        W 1079   2.984   2.698   0.123 -0.1108 -0.0623  0.1573
 1050W        W 1080   5.392   3.941   6.225  0.3050 -0.3108 -0.2895
 1051W        W 1081   2.925   4.490   0.919  0.1077 -0.2061 -0.0608
 1052W        W 1082   0.767   4.018   1.047  0.0195 -0.1450  0.2390
 1053W        W 1083   5.759   0.627   2.408  0.1487  0.1484 -0.2155
 1054W        W 1084   4.384   2.218   3.091  0.0734  0.0043 -0.1807
 1055W        W 1085   0.572   2.209   3.927  0.1868 -0.1581 -0.1820
 1056W        W 1086   1.864   1.973   5.720  0.1902 -0.0488  0.1082
 1057W        W 1087   3.626   5.946   2.398  0.0459 -0.1834  0.2728
 1058W        W 1088   3.938   3.496   6.205  0.1068 -0.1837  0.2656
 1059W        W 1089   1.406   3.119   1.058  0.0495 -0.1933  0.2762
 1060W        W 1090   5.576   0.897   4.077  0.1543 -0.1758  0.3585
 1061W        W 1091   0.125   6.015   4.531  0.2121  0.0003 -0.0989
 1062W        W 1092   3.410   4.209   5.979  0.0996 -0.0240 -0.1957
 1063W        W 1093   6.051   2.789   3.119  0.0484 -0.2893  0.1391
 1064W        W 1094   4.214   4.810   0.704 -0.0277 -0.4094 -0.0116
 1065W        W 1095   2.840   4.764   4.716 -0.2065  0.1563  0.0235
 1066W        W 1096   4.588   5.056   5.250 -0.2853  0.1266 -0.0416
 1067W        W 1097   6.040   1.728   6.077  0.0937  0.2161 -0.0229
 1068W        W 1098   4.830   3.020   2.920 -0.0638 -0.1683 -0.1823
 1069W        W 1099   5.563   1.968   1.595 -0.0104 -0.1555  0.0465
 1070W        W 1100   3.951   1.418   0.895 -0.1488  0.2314  0.2574
 1071W        W 1101   5.964   2.343   5.234 -0.2101  0.1469 -0.0826
 1072W        W 1102   1.168   4.243   3.263  0.0693  0.2390 -0.1401
 1073W        W 1103   1.313   2.656   5.485 -0.1516 -0.0770  0.0552
 1074W        W 1104   4.076   0.389   3.038 -0.0873 -0.1278 -0.1583
 1075W        W 1105   5.041   5.759   0.411 -0.0481 -0.0544 -0.1055
 1076W        W 1106   6.216   3.645   4.574  0.1446  0.2302 -0.0089
 1077W        W 1107   2.198   0.196   4.193 -0.2020 -0.0528 -0.1133
 1078W        W 1108   2.495   4.733   0.902  0.0527  0.0675  0.0107
 1079W        W 1109   1.569   6.114   1.825  0.3210 -0.0327  0.1355
 1080W        W 1110   2.194   6.154   3.359  0.0402  0.0089  0.0044
 1081W        W 1111   4.020   3.504   4.642 -0.0010 -0.0359 -0.2530
 1082W        W 1112   2.850   1.069   1.130  0.2258  0.2076 -0.1955
 1083W        W 1113   5.055   3.287   2.051  0.2472  0.1140  0.2478
 1084W        W 1114   5.410   3.336   0.852  0.0494 -0.0663 -0.0277
 1085W        W 1115   3.817   4.481   5.736 -0.2061  0.2286 -0.0702
 1086W        W 1116   1.328   5.525   1.365  0.1642 -0.1764 -0.1258
 1087W        W 1117   2.713   6.454   0.863  0.0067 -0.0447  0.1820
 1088W        W 1118   4.291   3.257   0.025  0.1232 -0.2296  0.1351
 1089W        W 1119   3.863   6.139   3.648  0.3989  0.1112 -0.2295
 1090W        W 1120   5.220   6.287   2.045 -0.1731 -0.0198  0.0134
 1091W        W 1121   1.895   6.388   4.602  0.0111  0.1191  0.2164
 1092W        W 1122   2.345   1.957   2.211 -0.1175  0.1114 -0.1965
 1093W        W 1123   3.021   3.763   3.788 -0.0014  0.1072  0.0252
 1094W        W 1124   3.847   5.072   4.184  0.3597 -0.1928 -0.0602
 1095W        W 1125   5.005   4.062   0.170 -0.0397  0.0355 -0.1202
 1096W        W 1126   3.689   0.944   0.968 -0.1205  0.0713 -0.2499
 1097W        W 1127   0.702   4.723   4.839 -0.0933  0.0446 -0.2153
 1098W        W 1128   1.572   5.693   0.883  0.2182  0.0385  0.1546
 1099W        W 1129   5.543   3.039   5.789 -0.0494  0.0523 -0.1723
 1100W        W 1130   0.280   0.188   5.039 -0.2141  0.0081  0.0087
 1101W        W 1131   1.154   1.913   2.095  0.2168  0.1596 -0.0692
 1102W        W 1132   4.297   5.476   1.455 -0.0208 -0.1206  0.1214
 1103W        W 1133   2.627   1.765   1.173 -0.1867 -0.0017 -0.3060
 1104W        W 1134   3.809   1.301   5.833 -0.1548 -0.1664 -0.3652
 1105W        W 1135   5.819   2.113   5.647  0.3366 -0.1363 -0.0510
 1106W        W 1136   6.282   4.568   2.911  0.1111  0.0112  0.0319
 1107W        W 1137   0.918   1.087   2.366 -0.1575  0.1558 -0.1234
 1108W        W 1138   1.481   0.995   5.340 -0.1388  0.0180  0.2047
 1109W        W 1139   1.452   4.368   5.781  0.1003  0.1007 -0.3571
 1110W        W 1140   2.226   4.411   6.355  0.1136 -0.1024 -0.3353
 1111W        W 1141   0.345   0.158   3.645 -0.0705 -0.1541 -0.0552
 1112W        W 1142   2.604   3.634   0.337 -0.0420 -0.1352  0.0312
 1113W        W 1143   4.439   4.158   5.125  0.0210  0.0597  0.2066
 1114W        W 1144   2.681   4.538   6.337  0.0819 -0.0589  0.1328
 1115W        W 1145   6.009   2.998   0.016 -0.5174 -0.2741  0.0015
 1116W        W 1146   5.224   2.594   3.398  0.0741 -0.1601  0.0226
 1117W        W 1147   4.368   0.743   2.702 -0.1297 -0.1234 -0.3196
 1118W        W 1148   6.117   3.402   5.072  0.0261  0.0477  0.1670
 1119W        W 1149   4.455   6.313   3.646  0.1592 -0.1457  0.2050
 1120W        W 1150   3.558   5.917   3.232  0.0817 -0.1380  0.0445
 1121W        W 1151   3.241   1.624   4.605 -0.1636 -0.0179 -0.0489
 1122W        W 1152   3.212   5.090   4.423 -0.1229  0.1982 -0.1354
 1123W        W 1153   1.683   3.615   3.826 -0.2190 -0.2963  0.1621
 1124W        W 1154   0.712   4.360   2.988  0.2412 -0.0549  0.2968
 1125W        W 1155   0.557   2.413   3.335  0.0965  0.0313 -0.2324
 1126W        W 1156   0.165   6.437   4.026  0.2301 -0.0690  0.0023
 1127W        W 1157   2.850   6.181   1.247 -0.0689  0.5278  0.2010
 1128W        W 1158   5.938   1.672   4.675 -0.2028 -0.2664 -0.0693
 1129W        W 1159   4.873   4.261   1.823  0.2218 -0.0770  0.1136
 1130W        W 1160   2.509   1.069   4.721 -0.2088 -0.0228 -0.1921
 1131W        W 1161   4.735   0.625   6.139 -0.2300  0.1276  0.0813
 1132W        W 1162   5.514   2.523   4.919 -0.1155  0.4165  0.0183
 1133W        W 1163   0.319   0.739   2.745 -0.0884 -0.3473  0.3842
 1134W        W 1164   4.072   1.432   6.267  0.2541 -0.0729  0.1770
 1135W        W 1165   5.357   1.029   4.984 -0.2639 -0.0329  0.2447
 1136W        W 1166   1.320   1.386   5.162  0.0651 -0.1122 -0.0911
 1137W        W 1167   3.211   0.189   0.103  0.4146  0.3504 -0.1999
 1138W        W 1168   3.994   0.738   3.356 -0.0427  0.1816 -0.0648
 1139W        W 1169   4.244   5.264   0.768  0.1865  0.1856 -0.0540
 1140W        W 1170   3.535   0.239   2.261 -0.1563  0.5961  0.2439
 1141W        W 1171   0.178   3.018   5.034 -0.0129 -0.0153 -0.1650
 1142W        W 1172   0.091   4.576   1.802 -0.0598  0.0237 -0.1016
 1143W        W 1173   6.422   0.759   1.917 -0.1356 -0.3452 -0.0443
 1144W        W 1174   1.671   4.515   6.328  0.0101 -0.1207  0.4461
 1145W        W 1175   1.002   2.743   3.219  0.1286 -0.2076 -0.0386
 1146W        W 1176   0.292   5.341   3.889 -0.0985 -0.0382 -0.0349
 1147W        W 1177   4.463   1.608   4.175 -0.2326 -0.2242  0.0945
 1148W        W 1178   0.770   2.024   2.939 -0.3406  0.0482 -0.2015
 1149W        W 1179   4.216   3.817   5.535 -0.0957  0.0525 -0.2629
 1150W        W 1180   3.327   4.502   0.099 -0.0314  0.1368  0.0616
 1151W        W 1181   0.464   5.525   1.091  0.0624  0.1765 -0.0579
 1152W        W 1182   1.030   4.374   5.454  0.0901  0.1725 -0.1638
 1153W        W 1183   1.808   1.881   3.671  0.2820 -0.2543 -0.1173
 1154W        W 1184   2.319   1.776   0.705  0.1457  0.1251  0.2325
 1155W        W 1185   6.098   2.703   1.402 -0.0690 -0.1939  0.4097
 1156W        W 1186   0.283   5.479   1.722 -0.4376 -0.0573 -0.0276
 1157W        W 1187   1.025   5.730   3.234  0.0073 -0.1650  0.0189
 1158W        W 1188   6.313   3.643   2.356 -0.2784 -0.2062 -0.2906
 1159W        W 1189   5.806   3.585   2.607  0.2287  0.0875 -0.3110
 1160W        W 1190   2.627   4.520   5.293  0.0027  0.1790  0.3268
 1161W        W 1191   2.321   2.210   2.703  0.0209 -0.1120  0.2837
 1162W        W 1192   6.084   1.592   2.388  0.0588  0.4202  0.0060
 1163W        W 1193   2.081   3.982   0.593 -0.2733 -0.1879  0.2318
 1164W        W 1194   3.221   0.309   1.813  0.1333 -0.2115  0.0943
 1165W        W 1195   0.171   0.187   2.735  0.0755  0.0720 -0.0371
 1166W        W 1196   6.004   2.817   3.932 -0.0908  0.1546  0.0543
 1167W        W 1197   0.539   5.267   0.083  0.0450  0.0567  0.0593
 1168W        W 1198   2.933   2.389   3.244 -0.3900  0.1295 -0.0547
 1169W        W 1199   1.196   5.772   2.568  0.3230 -0.1144  0.2544
 1170W        W 1200   4.347   3.173   2.832 -0.0828  0.0036 -0.2452
 1171W        W 1201   0.940   4.711   5.895 -0.1509  0.2463  0.0896
 1172W        W 1202   1.001   1.794   4.755  0.1097  0.1233  0.0109
 1173W        W 1203   1.703   6.044   5.312 -0.1499 -0.2043  0.1439
 1174W        W 1204   4.879   6.432   2.389 -0.2864 -0.1654  0.2592
 1175W        W 1205   2.694   4.613   1.786  0.1999 -0.0812 -0.2587
 1176W        W 1206   5.655   6.299   5.935 -0.0359  0.0780  0.1096
 1177W        W 1207   3.315   6.446   4.531 -0.0623 -0.1639  0.0147
 1178W        W 1208   1.805   1.888   1.519  0.0211 -0.0058  0.1022
 1179W        W 1209   2.310   0.370   0.116  0.0277 -0.2362 -0.0640
 1180W        W 1210   4.228   2.775   6.255 -0.1190  0.0675  0.1789
 1181W        W 1211   2.256   5.299   5.679 -0.1281  0.1979 -0.1181
 1182W        W 1212   4.903   2.761   2.022  0.0692 -0.1549  0.0192
 1183W        W 1213   2.180   3.680   5.926  0.2049 -0.0286 -0.1569
 1184W        W 1214   0.419   1.895   2.572 -0.1747 -0.2494 -0.0732
 1185W        W 1215   0.798   3.337   5.675  0.0053 -0.0056 -0.1743
 1186W        W 1216   5.381   0.002   2.465 -0.2339  0.0440 -0.2382
 1187W        W 1217   2.503   0.192   2.047 -0.0570 -0.1515  0.0017
 1188W        W 1218   5.610   3.925   0.804  0.3868  0.1527 -0.2125
 1189W        W 1219   5.235   0.127   4.250  0.2369  0.0242  0.0403
 1190W        W 1220   3.684   6.231   5.922  0.3853 -0.0100 -0.1635
 1191W        W 1221   1.609   4.021   0.669  0.0758 -0.0629  0.1238
 1192W        W 1222   4.824   3.898   2.830  0.2090 -0.1575  0.2135
 1193W        W 1223   1.088   0.597   2.978  0.1812 -0.1504 -0.1528
 1194W        W 1224   0.289   2.115   4.705 -0.0399  0.1823  0.2716
 1195W        W 1225   5.616   4.976   1.448  0.2119 -0.3266  0.4264
 1196W        W 1226   1.917   4.679   5.879  0.0295  0.1133  0.1081
 1197W        W 1227   1.775   2.314   2.503 -0.2167 -0.0035  0.0721
 1198W        W 1228   1.031   6.067   5.587 -0.1574 -0.3338 -0.0137
 1199W        W 1229   5.816   4.877   6.120  0.0557  0.2228  0.2126
 1200W        W 1230   0.124   0.236   1.806 -0.3346  0.0072  0.2441
 1201W        W 1231   2.422   0.135   4.617 -0.0197  0.0087  0.1992
 1202W        W 1232   5.175   5.457   1.307  0.1478  0.1602 -0.1078
 1203W        W 1233   2.196   1.177   3.582 -0.1919  0.1168 -0.1376
 1204W        W 1234   0.634   4.212   4.669 -0.0620 -0.2339 -0.1572
 1205W        W 1235   4.716   5.766   3.493 -0.0984  0.1900  0.2120
 1206W        W 1236   5.118   3.088   3.305 -0.0742 -0.3213 -0.0571
 1207W        W 1237   3.326   1.215   2.153 -0.2918  0.1453  0.1607
 1208W        W 1238   2.949   5.824   0.117 -0.2029 -0.0140 -0.3251
 1209W        W 1239   0.764   4.894   2.993  0.0775  0.3172 -0.3625
 1210W        W 1240   6.023   0.726   0.630 -0.1717 -0.0537 -0.1094
 1211W        W 1241   4.458   0.044   3.179  0.0659  0.1022  0.1832
 1212W        W 1242   5.677   0.288   0.793 -0.2138  0.0220 -0.1235
 1213W        W 1243   0.532   2.620   5.655  0.1121 -0.2409  0.0764
 1214W        W 1244   5.326   3.994   4.039  0.3560 -0.1775  0.0592
 1215W        W 1245   3.550   1.944   5.585 -0.1256  0.0961 -0.2440
 1216W        W 1246   6.326   3.867   5.203 -0.0358 -0.1102  0.3021
 1217W        W 1247   2.118   5.227   4.753 -0.1703 -0.1577  0.0810
 1218W        W 1248   4.521   2.636   2.418 -0.0539 -0.0210  0.1248
 1219W        W 1249   3.793   3.457   3.646  0.2907  0.0582  0.1096
 1220W        W 1250   3.198   0.075   0.591 -0.0197 -0.2023 -0.0370
 1221W        W 1251   2.106   0.541   2.039  0.0851 -0.1205 -0.0867
 1222W        W 1252   0.361   2.812   6.094  0.0145  0.0680 -0.3701
 1223W        W 1253   4.988   3.143   4.116  0.3440  0.2318  0.0683
 1224W        W 1254   3.420   2.885   1.069  0.2568  0.2734 -0.0718
 1225W        W 1255   0.179   4.410   5.945 -0.0719  0.0694  0.0982
 1226W        W 1256   3.374   1.112   1.403 -0.4292  0.2079  0.2153
 1227W        W 1257   2.514   5.951   0.830  0.1003  0.0051  0.1165
 1228W        W 1258   0.419   0.887   1.633  0.0907  0.2175 -0.3568
 1229W        W 1259   3.051   1.938   3.018 -0.2902  0.0245  0.1404
 1230W        W 1260   4.674   2.468   6.300 -0.0816  0.0099 -0.2015
 1231W        W 1261   4.986   4.833   0.878 -0.3163  0.0486 -0.0245
 1232W        W 1262   2.065   0.853   1.617  0.2071 -0.2096 -0.1301
 1233W        W 1263   4.785   5.204   3.488  0.0904  0.0449 -0.0587
 1234W        W 1264   6.072   1.979   0.878  0.1683  0.2278 -0.0720
 1235W        W 1265   3.157   3.055   2.523 -0.0164 -0.2385  0.1378
 1236W        W 1266   0.190   5.616   2.854 -0.0352  0.1492  0.0901
 1237W        W 1267   0.612   1.390   4.959  0.3586  0.1111  0.1429
 1238W        W 1268   1.611   2.499   0.525  0.2258  0.2964  0.1104
 1239W        W 1269   4.542   0.797   0.630 -0.0669 -0.1742  0.1195
 1240W        W 1270   3.556   4.663   4.207  0.3703 -0.0217 -0.0386
 1241W        W 1271   0.425   0.819   1.165 -0.2292 -0.1677  0.1107
 1242W        W 1272   4.706   3.787   1.961 -0.0116  0.2158  0.0122
 1243W        W 1273   4.100   5.855   5.520  0.1539  0.0257  0.2105
 1244W        W 1274   0.638   3.051   3.387  0.0747 -0.0922 -0.0281
 1245W        W 1275   1.000   2.676   0.278 -0.1949 -0.0735 -0.0520
 1246W        W 1276   6.108   4.622   0.107 -0.1338 -0.1191  0.1546
 1247W        W 1277   3.387   2.353   3.028 -0.1131 -0.1038 -0.0888
 1248W        W 1278   1.303   0.026   5.482  0.0607 -0.0532 -0.0902
 1249W        W 1279   0.174   0.607   5.601  0.0585  0.0375  0.0109
 1250W        W 1280   4.043   2.439   1.616  0.0376 -0.1196 -0.1726
 1251W        W 1281   3.600   0.021   0.954  0.1000 -0.0978  0.0303
 1252W        W 1282   0.861   0.525   0.117  0.1596  0.3565  0.1880
 1253W        W 1283   1.087   4.690   0.344 -0.1085 -0.1050 -0.0118
 1254W        W 1284   1.077   2.286   3.273  0.0106 -0.2911 -0.0822
 1255W        W 1285   3.593   2.987   3.711  0.4201 -0.0290 -0.1881
 1256W        W 1286   0.608   5.698   3.627  0.1106 -0.1219 -0.0397
 1257W        W 1287   0.070   1.574   2.790  0.1049 -0.3003  0.1560
 1258W        W 1288   5.465   1.671   6.313  0.2698 -0.1309 -0.0048
 1259W        W 1289   1.202   5.837   5.148 -0.0360  0.1355  0.1460
 1260W        W 1290   2.127   5.260   2.231  0.1102  0.3341 -0.0141
 1261W        W 1291   6.287   3.052   2.709 -0.1214  0.1645  0.0763
 1262W        W 1292   1.368   1.277   4.370  0.0042 -0.1179 -0.2312
 1263W        W 1293   4.507   5.973   1.020  0.2701  0.2797 -0.0897
 1264W        W 1294   4.323   2.516   4.416  0.1586  0.0288  0.1052
 1265W        W 1295   5.220   3.104   2.469 -0.0365  0.1437 -0.2705
 1266W        W 1296   3.273   5.907   1.429  0.2435  0.0474  0.0213
 1267W        W 1297   0.884   2.877   1.700 -0.1856  0.1780 -0.1222
 1268W        W 1298   2.537   5.356   3.851  0.0604  0.3403 -0.1204
 1269W        W 1299   4.045   3.736   0.709  0.0689  0.2549 -0.0328
 1270W        W 1300   0.007   2.305   6.014 -0.0448 -0.2104 -0.1491
 1271W        W 1301   0.053   3.896   1.266 -0.0402  0.1150  0.0668
 1272W        W 1302   1.408   1.919   2.547  0.1896 -0.0819 -0.1945
 1273W        W 1303   3.469   5.334   4.927  0.0720 -0.0401 -0.1499
 1274W        W 1304   1.741   2.628   2.132  0.2349  0.3731  0.1728
 1275W        W 1305   2.014   4.330   1.404  0.1626  0.2867 -0.2101
 1276W        W 1306   1.282   1.849   3.044  0.1790  0.2254 -0.0804
 1277W        W 1307   1.515   1.893   5.317  0.1146 -0.0146 -0.3668
 1278W        W 1308   5.360   6.080   5.122 -0.0814  0.4092  0.2768
 1279W        W 1309   0.900   6.215   2.889  0.0229  0.0738  0.1142
 1280W        W 1310   1.508   3.686   2.871 -0.0722  0.0822 -0.0325
 1281W        W 1311   5.923   0.161   5.086  0.1060 -0.0348  0.0805
 1282W        W 1312   0.822   1.683   1.742  0.0735 -0.3158 -0.0950
 1283W        W 1313   0.977   3.439   3.502 -0.1337 -0.2105  0.0301
 1284W        W 1314   3.904   3.979   4.786  0.0721  0.2459 -0.0474
 1285W        W 1315   2.926   4.866   2.184  0.0620 -0.3001  0.0919
 1286W        W 1316   0.138   5.168   6.303  0.2052  0.1505 -0.2899
 1287W        W 1317   0.211   4.490   0.456 -0.0915  0.3441 -0.1322
 1288W        W 1318   4.368   2.654   0.722  0.1643  0.4572 -0.1005
 1289W        W 1319   0.650   5.217   5.649 -0.1941 -0.2815  0.2138
 1290W        W 1320   0.948   5.485   6.147  0.1310 -0.2044  0.0112
 1291W        W 1321   5.682   6.117   2.717  0.5192 -0.0737 -0.0305
 1292W        W 1322   2.666   2.234   1.940  0.1370 -0.0673 -0.4479
 1293W        W 1323   5.438   3.078   4.634 -0.0745  0.2530  0.1806
 1294W        W 1324   6.257   6.085   4.105  0.0679 -0.2280  0.1682
 1295W        W 1325   6.418   2.417   2.249  0.0911 -0.5081 -0.1337
 1296W        W 1326   5.610   4.280   2.150 -0.2113 -0.2364  0.2088
 1297W        W 1327   2.419   3.405   2.981  0.3106  0.1846  0.0888
 1298W        W 1328   0.047   2.468   1.458 -0.3889 -0.1800 -0.2691
 1299W        W 1329   1.175   4.105   1.991 -0.1452  0.3300  0.2485
 1300W        W 1330   5.321   3.782   4.702  0.2713 -0.0996 -0.1763
 1301W        W 1331   2.531   3.546   5.055  0.0869 -0.0116 -0.2340
 1302W        W 1332   3.522   2.585   5.891  0.1881  0.2533 -0.3029
 1303W        W 1333   1.038   6.004   3.835 -0.1173  0.0648  0.0570
 1304W        W 1334   4.321   3.671   2.903  0.0486 -0.0909  0.2457
 1305W        W 1335   3.347   6.294   1.989 -0.3162 -0.1591 -0.2021
 1306W        W 1336   5.823   0.526   2.900 -0.1831 -0.0532 -0.2504
 1307W        W 1337   3.235   5.377   0.213  0.4303  0.1367 -0.0839
 1308W        W 1338   0.682   5.202   4.535  0.2950  0.1200  0.2015
 1309W        W 1339   2.239   2.667   2.636  0.1033 -0.4517  0.2252
 1310W        W 1340   2.814   0.089   1.619 -0.1534  0.0690 -0.1962
 1311W        W 1341   0.583   2.787   2.429  0.0096 -0.0603  0.1211
 1312W        W 1342   4.429   0.400   1.047  0.0060 -0.1121 -0.1320
 1313W        W 1343   2.923   2.959   1.363  0.2716  0.0497 -0.3416
 1314W        W 1344   2.259   0.215   6.038  0.0825  0.1906 -0.1804
 1315W        W 1345   1.371   3.140   2.435 -0.0232 -0.0217 -0.0011
 1316W        W 1346   1.916   4.017   2.703  0.0263 -0.3217  0.0271
 1317W        W 1347   0.792   0.611   2.530  0.2246  0.2199 -0.4926
 1318W        W 1348   3.428   0.545   5.351  0.2650 -0.1332 -0.1541
 1319W        W 1349   3.772   2.262   4.215  0.1803  0.2095  0.1644
 1320W        W 1350   5.658   1.641   1.213  0.0441 -0.1655  0.1989
 1321W        W 1351   1.971   0.520   5.686 -0.1961 -0.0570  0.0968
 1322W        W 1352   4.711   5.393   4.069  0.0955  0.0388 -0.4119
 1323W        W 1353   0.065   5.536   4.344  0.3953  0.0455 -0.1932
 1324W        W 1354   1.660   3.961   3.243  0.1022 -0.1126 -0.0586
 1325W        W 1355   3.643   4.213   1.959 -0.0093  0.0168 -0.3546
 1326W        W 1356   4.805   5.207   2.909  0.1653  0.1971 -0.0906
 1327W        W 1357   1.831   0.008   5.081  0.0835 -0.1188  0.1345
 1328W        W 1358   0.746   3.478   1.817 -0.0616 -0.3272 -0.1668
 1329W        W 1359   3.036   2.741   2.872  0.2673 -0.0364 -0.1624
 1330W        W 1360   2.073   1.105   1.183  0.0156 -0.2735 -0.0852
 1331W        W 1361   0.426   3.935   5.090 -0.1181 -0.1244 -0.1925
 1332W        W 1362   4.999   2.862   5.977  0.0725 -0.0086  0.0449
 1333W        W 1363   3.580   1.509   0.047 -0.2720 -0.2486  0.1137
 1334W        W 1364   0.164   4.099   1.679 -0.2725 -0.0835 -0.0206
 1335W        W 1365   1.525   2.974   0.557 -0.2956 -0.2020 -0.1775
 1336W        W 1366   3.186   0.778   3.673  0.3597  0.0088  0.0217
 1337W        W 1367   5.618   6.294   0.771  0.0664  0.0762 -0.3514
 1338W        W 1368   1.901   1.778   2.374 -0.3702  0.0345 -0.1413
 1339W        W 1369   1.839   4.066   5.582 -0.1334 -0.1617 -0.0101
 1340W        W 1370   3.530   0.764   4.903  0.0667  0.2455 -0.0418
 1341W        W 1371   0.333   3.504   6.285 -0.1227 -0.1931 -0.2083
 1342W        W 1372   1.514   6.123   5.783 -0.0988  0.1884 -0.2430
 1343W        W 1373   0.746   3.746   0.541  0.0369 -0.1613 -0.2484
 1344W        W 1374   2.694   5.417   3.166 -0.0874  0.1520 -0.0382
 1345W        W 1375   4.663   2.239   2.020  0.0081 -0.0025  0.0575
 1346W        W 1376   1.559   5.490   3.916 -0.2388  0.1808 -0.0377
 1347W        W 1377   2.927   0.553   0.751  0.0308  0.0140  0.0600
 1348W        W 1378   1.995   2.855   0.707  0.3243 -0.0783  0.0808
 1349W        W 1379   4.795   2.668   1.038  0.0347  0.3452  0.2782
 1350W        W 1380   0.441   1.235   2.620 -0.0207  0.0164  0.2399
 1351W        W 1381   3.103   3.052   5.798 -0.1511  0.1583 -0.1634
 1352W        W 1382   4.917   1.823   0.287  0.0376 -0.2055  0.0677
 1353W        W 1383   4.111   6.302   4.055 -0.0667  0.0756  0.2405
 1354W        W 1384   2.295   4.934   6.010  0.0704  0.1748 -0.3530
 1355W        W 1385   0.033   2.575   5.513 -0.0025  0.3059 -0.2287
 1356W        W 1386   3.787   4.368   3.883 -0.0203  0.0194 -0.1627
 1357W        W 1387   1.072   5.275   2.815  0.2550 -0.1059  0.4198
 1358W        W 1388   5.955   2.696   5.726  0.0535  0.1805  0.4154
 1359W        W 1389   0.439   3.658   1.121  0.0001  0.2050  0.0695
 1360W        W 1390   5.537   5.747   0.564  0.3423 -0.4973  0.1380
 1361W        W 1391   2.279   4.084   4.014  0.3547  0.1924 -0.0376
 1362W        W 1392   2.090   0.812   0.093  0.2764 -0.0940 -0.3697
 1363W        W 1393   1.418   5.749   3.478 -0.1130  0.0234  0.2643
 1364W        W 1394   4.943   1.566   6.346 -0.2060  0.0771 -0.0122
 1365W        W 1395   2.811   1.313   4.421  0.0559  0.0523 -0.0660
 1366W        W 1396   3.495   0.205   6.109  0.1529 -0.3291 -0.0034
 1367W        W 1397   4.620   2.983   0.430 -0.2311  0.2463  0.0240
 1368W        W 1398   4.279   4.229   4.662 -0.2379 -0.0993 -0.2614
 1369W        W 1399   5.422   1.393   4.184 -0.0847 -0.0252  0.0120
 1370W        W 1400   5.265   5.179   4.849 -0.0302  0.2355  0.1032
 1371W        W 1401   4.403   4.393   4.203  0.3165  0.1468  0.0678
 1372W        W 1402   4.226   1.165   4.078  0.1066  0.0220 -0.0458
 1373W        W 1403   0.518   1.748   1.185 -0.1430 -0.2368  0.1153
 1374W        W 1404   4.725   4.342   5.471 -0.0556 -0.1459 -0.0059
 1375W        W 1405   0.938   3.489   4.367  0.1430 -0.1547 -0.1918
 1376W        W 1406   1.322   1.089   3.665  0.0227  0.0113  0.0261
 1377W        W 1407   1.918   1.555   0.196  0.1028  0.4812  0.3161
 1378W        W 1408   2.721   1.654   3.967  0.1108  0.1810  0.1961
 1379W        W 1409   5.727   4.992   0.143 -0.0981  0.2309 -0.1274
 1380W        W 1410   2.362   1.329   0.453 -0.0941 -0.2385  0.0188
 1381W        W 1411   1.154   4.575   2.735  0.1009 -0.0410 -0.5352
 1382W        W 1412   1.788   4.881   0.619 -0.0710 -0.2975 -0.1532
 1383W        W 1413   0.876   2.109   2.469 -0.0746 -0.1289  0.2699
 1384W        W 1414   4.988   5.821   0.953  0.1251  0.1643  0.2350
 1385W        W 1415   0.334   3.486   3.435 -0.2186  0.2445 -0.2359
 1386W        W 1416   4.052   0.488   0.128 -0.1384  0.1772 -0.3483
 1387W        W 1417   4.110   1.969   3.419 -0.0552 -0.1616 -0.1514
 1388W        W 1418   1.875   4.580   2.806 -0.0507 -0.0675 -0.2178
 1389W        W 1419   3.220   5.443   6.187  0.0092  0.1048  0.0105
 1390W        W 1420   2.702   2.983   3.164  0.2828 -0.0779  0.2844
 1391W        W 1421   1.677   0.510   4.265 -0.1338 -0.1871 -0.0357
 1392W        W 1422   1.167   3.231   3.069  0.1765 -0.2274  0.1249
 1393W        W 1423   4.024   4.946   2.770 -0.0725 -0.2658  0.0935
 1394W        W 1424   1.132   4.054   2.505  0.0644 -0.2137  0.2039
 1395W        W 1425   3.569   2.341   0.626 -0.2517 -0.0636  0.0623
 1396W        W 1426   4.062   1.946   0.034 -0.0651  0.4095  0.1205
 1397W        W 1427   0.930   4.066   5.072  0.0647  0.0619 -0.4422
 1398W        W 1428   3.036   5.576   4.479  0.0847 -0.2492 -0.1678
 1399W        W 1429   3.076   3.835   2.983  0.0318  0.0912 -0.3173
 1400W        W 1430   5.926   6.372   1.189  0.2371  0.0512  0.0250
 1401W        W 1431   3.733   0.084   0.063  0.0257  0.2451 -0.0277
 1402W        W 1432   0.154   4.979   0.324  0.0708 -0.0688  0.2245
 1403W        W 1433   1.934   4.352   2.354  0.0704  0.2652  0.0054
 1404W        W 1434   2.005   0.735   2.561 -0.2001  0.1808 -0.0776
 1405W        W 1435   2.821   1.523   5.433 -0.2380 -0.0728  0.3146
 1406W        W 1436   1.921   1.138   6.156  0.1317 -0.2628 -0.3058
 1407W        W 1437   0.680   2.750   4.736 -0.0766 -0.0341 -0.0094
 1408W        W 1438   5.536   4.526   0.025  0.2865  0.1212  0.1042
 1409W        W 1439   2.049   1.859   4.631  0.1466  0.1031  0.1890
 1410W        W 1440   1.769   2.884   5.744  0.1508  0.1682  0.1395
 1411W        W 1441   3.335   4.247   2.759  0.0839 -0.1478 -0.0021
 1412W        W 1442   0.144   3.578   0.347  0.2852 -0.0445 -0.1360
 1413W        W 1443   6.097   2.249   3.441 -0.0527  0.0600  0.3010
 1414W        W 1444   6.203   6.030   6.008 -0.0774  0.0278 -0.0947
 1415W        W 1445   4.191   6.004   1.459 -0.0658  0.0102  0.2150
 1416W        W 1446   0.986   0.277   2.184 -0.0250 -0.0445  0.2066
 1417W        W 1447   5.981   6.351   0.199 -0.0734 -0.1136 -0.2482
 1418W        W 1448   2.508   1.205   5.683  0.1391  0.1005 -0.0942
 1419W        W 1449   0.197   5.152   2.942  0.0306  0.1172  0.4070
 1420W        W 1450   5.932   5.743   1.843 -0.0823 -0.2204 -0.0608
 1421W        W 1451   4.989   3.729   4.320  0.0441 -0.1009 -0.0519
 1422W        W 1452   1.782   1.317   3.379 -0.4606 -0.0052 -0.2505
 1423W        W 1453   4.813   3.942   6.196 -0.0996  0.0361  0.1225
 1424W        W 1454   2.684   4.413   2.237 -0.3471  0.2221  0.2328
 1425W        W 1455   5.278   6.361   6.248 -0.4372 -0.1498 -0.2645
 1426W        W 1456   2.478   0.551   4.926 -0.0000 -0.0482 -0.1568
 1427W        W 1457   0.601   5.498   0.486  0.3098  0.0939  0.0613
 1428W        W 1458   5.568   0.224   2.017  0.0282 -0.2343  0.0689
 1429W        W 1459   3.398   3.793   0.790 -0.1740 -0.1223  0.1356
 1430W        W 1460   4.808   6.275   5.116  0.3103  0.0800  0.0212
 1431W        W 1461   0.521   4.927   1.545  0.0967 -0.0143 -0.0908
 1432W        W 1462   2.015   5.739   0.130 -0.0830 -0.1573 -0.1297
 1433W        W 1463   0.917   0.180   5.710 -0.2817 -0.1629 -0.2720
 1434W        W 1464   5.643   3.204   0.419  0.3388 -0.1821 -0.2253
 1435W        W 1465   4.574   5.905   4.894 -0.2550 -0.0845  0.3126
 1436W        W 1466   2.259   4.792   2.424 -0.2473  0.4318  0.0601
 1437W        W 1467   5.768   3.059   1.276  0.4508  0.0222  0.3399
 1438W        W 1468   0.507   1.416   0.323  0.1626 -0.0438  0.0815
 1439W        W 1469   0.220   2.698   4.615 -0.0086  0.1878  0.2617
 1440W        W 1470   5.291   4.953   3.635  0.2837 -0.1755  0.0704
 1441W        W 1471   2.952   2.644   4.612 -0.2141 -0.0801 -0.2045
 1442W        W 1472   3.635   2.474   1.957 -0.3347 -0.3804  0.0216
 1443W        W 1473   0.144   1.962   4.050 -0.4678  0.3422 -0.0107
 1444W        W 1474   0.612   4.752   0.122 -0.1749 -0.1707 -0.0634
 1445W        W 1475   0.930   3.033   2.686 -0.3344  0.1426 -0.1249
 1446W        W 1476   5.792   5.093   4.801  0.3180  0.0628  0.0079
 1447W        W 1477   3.327   4.645   4.663 -0.3624  0.0064 -0.1669
 1448W        W 1478   0.465   2.723   1.377 -0.0392  0.1477  0.0877
 1449W        W 1479   3.203   5.082   5.865  0.1084  0.0284 -0.4568
 1450W        W 1480   5.003   3.277   4.632 -0.1705 -0.0860 -0.1198
 1451W        W 1481   5.948   3.533   0.836  0.4368 -0.0783 -0.0913
 1452W        W 1482   2.808   0.690   5.841  0.1215  0.0218 -0.2830
 1453W        W 1483   3.886   1.426   1.915 -0.0876  0.0410 -0.2173
 1454W        W 1484   3.752   4.246   2.942 -0.4598  0.1924  0.1623
 1455W        W 1485   3.388   1.102   2.661 -0.1810  0.1799 -0.0809
 1456W        W 1486   2.227   6.169   2.312 -0.0708  0.1648  0.0521
 1457W        W 1487   1.362   2.346   1.926  0.0393  0.0273  0.3343
 1458W        W 1488   6.325   0.553   2.873 -0.1084 -0.0310 -0.1290
 1459W        W 1489   0.083   1.708   4.944 -0.2382 -0.1114  0.1573
 1460W        W 1490   0.772   3.139   6.114  0.0579  0.3835  0.1975
 1461W        W 1491   2.985   5.509   2.082  0.0398  0.2426 -0.1700
 1462W        W 1492   0.560   5.897   1.529 -0.0671 -0.1236 -0.1335
 1463W        W 1493   0.532   3.966   3.328  0.0806  0.0493 -0.0018
 1464W        W 1494   5.647   4.749   5.663  0.3061  0.2021  0.0839
 1465W        W 1495   4.666   1.438   1.497  0.1337 -0.3415 -0.1592
 1466W        W 1496   2.334   1.697   3.631  0.2784 -0.0320 -0.1684
 1467W        W 1497   5.071   4.366   3.716  0.0566  0.2116 -0.0249
 1468W        W 1498   4.449   2.650   3.930  0.2792  0.1442 -0.2246
 1469W        W 1499   5.268   2.421   1.661  0.0706 -0.2481  0.2077
 1470W        W 1500   3.818   1.535   5.371 -0.0966 -0.1387 -0.1403
 1471W        W 1501   0.545   4.532   5.270  0.0141 -0.0616 -0.1107
 1472W        W 1502   1.105   6.358   4.158 -0.0219 -0.1403  0.0553
 1473W        W 1503   1.519   0.903   5.893 -0.1175 -0.0366 -0.1952
 1474W        W 1504   3.146   0.429   3.334  0.0036 -0.1468 -0.0091
 1475W        W 1505   0.351   3.146   0.963  0.3280 -0.0316  0.0780
 1476W        W 1506   2.986   4.332   4.408 -0.0384 -0.0899  0.0947
 1477W        W 1507   1.247   6.407   3.640  0.0520 -0.0150 -0.0779
 1478W        W 1508   4.315   1.705   1.129 -0.0076  0.0370 -0.0823
 1479W        W 1509   4.941   0.899   5.324 -0.1619  0.2128 -0.0366
 1480W        W 1510   1.155   3.556   5.280 -0.1591  0.0194 -0.3470
 1481W        W 1511   6.313   1.340   4.606 -0.1215 -0.0850 -0.2137
 1482W        W 1512   0.693   1.779   0.648  0.0319  0.0782  0.0508
 1483W        W 1513   0.494   6.208   4.901  0.2155  0.2419  0.0820
 1484W        W 1514   4.167   1.681   4.891  0.0029 -0.1238  0.1936
 1485W        W 1515   1.991   2.436   4.447 -0.1825  0.1379  0.3523
 1486W        W 1516   5.119   1.048   3.914  0.0422  0.0077  0.0644
 1487W        W 1517   5.757   1.072   5.330  0.1417  0.0783  0.3189
 1488W        W 1518   0.856   6.171   3.387  0.0110 -0.2458 -0.0284
 1489W        W 1519   4.894   1.285   1.918 -0.0458 -0.2071  0.1204
 1490W        W 1520   0.234   5.243   0.770 -0.0792  0.3109  0.0848
 1491W        W 1521   3.222   5.249   1.244 -0.2818 -0.3497  0.1018
 1492W        W 1522   4.689   2.324   5.212 -0.0558 -0.2968  0.0935
 1493W        W 1523   5.281   4.575   1.643  0.0790  0.2513 -0.1603
 1494W        W 1524   4.003   2.927   2.007  0.0579 -0.1573  0.0335
 1495W        W 1525   5.639   1.912   2.502 -0.1954 -0.0077 -0.0372
 1496W        W 1526   0.939   3.553   1.324 -0.2184 -0.0919 -0.4373
 1497W        W 1527   0.378   4.340   3.820  0.1088 -0.1306 -0.0068
 1498W        W 1528   0.122   3.406   5.387  0.0388 -0.1887 -0.1510
 1499W        W 1529   4.230   2.651   5.362  0.2466  0.0736  0.1396
 1500W        W 1530   5.306   0.212   0.455 -0.3435  0.0498 -0.0887
 1501W        W 1531   0.567   3.212   1.410  0.1444  0.0696 -0.2526
 1502W        W 1532   6.242   3.710   2.882 -0.0495 -0.1855  0.0771
 1503W        W 1533   3.710   5.033   4.626  0.2725  0.3799 -0.0515
 1504W        W 1534   2.705   3.346   4.557  0.0985 -0.0099 -0.1838
 1505W        W 1535   5.065   5.029   5.303  0.1935 -0.1408  0.0147
 1506W        W 1536   2.272   5.561   0.951 -0.1148 -0.4845  0.2542
 1507W        W 1537   2.614   2.145   3.846 -0.1959  0.2207  0.1639
 1508W        W 1538   1.617   2.244   3.356  0.0604  0.0843 -0.2007
 1509W        W 1539   4.000   4.131   4.278  0.0104  0.1281 -0.2003
 1510W        W 1540   0.307   3.679   2.930 -0.0279  0.0328  0.2530
 1511W        W 1541   0.813   4.145   3.660 -0.3032  0.3119 -0.1182
 1512W        W 1542   4.489   4.728   4.641  0.0184  0.0292 -0.0033
 1513W        W 1543   2.330   4.198   5.665  0.2005  0.0832  0.1413
 1514W        W 1544   4.684   2.926   6.403  0.2414  0.1959 -0.1462
 1515W        W 1545   5.534   3.566   5.978  0.0705 -0.1185  0.0531
 1516W        W 1546   3.548   0.640   0.132  0.0042 -0.1436  0.0130
 1517W        W 1547   5.631   4.371   1.289 -0.0068 -0.1122  0.0431
 1518W        W 1548   3.009   3.219   0.380  0.0811 -0.2114  0.0113
 1519W        W 1549   3.104   3.993   4.765  0.2779 -0.4339  0.1086
 1520W        W 1550   2.991   4.117   3.426 -0.1669  0.0346 -0.6884
 1521W        W 1551   5.293   4.094   1.540  0.2378  0.3058  0.2187
 1522W        W 1552   1.322   4.575   2.112  0.1356 -0.3006 -0.2071
 1523W        W 1553   0.490   1.889   5.116  0.2290 -0.2203 -0.1479
 1524W        W 1554   4.719   3.822   5.447 -0.1449  0.1395 -0.1944
 1525W        W 1555   0.022   1.165   5.807  0.0485 -0.0571 -0.2077
 1526W        W 1556   3.356   4.282   1.000  0.0680 -0.0361 -0.0244
 1527W        W 1557   2.199   3.336   4.452  0.2153  0.2132  0.0340
 1528W        W 1558   2.488   5.453   1.909 -0.2175 -0.0911 -0.1362
 1529W        W 1559   1.740   1.976   0.501 -0.0915 -0.0242 -0.1553
 1530W        W 1560   1.985   5.234   0.031  0.0057  0.6839 -0.1685
 1531W        W 1561   5.679   2.544   4.154  0.0327  0.1258 -0.2943
 1532W        W 1562   6.006   0.856   3.801  0.0014  0.2601  0.1488
 1533W        W 1563   3.710   1.246   3.129  0.0077 -0.0489 -0.1360
 1534W        W 1564   1.249   1.354   3.126 -0.0425 -0.0655  0.0583
 1535W        W 1565   2.467   3.583   0.822 -0.3417 -0.2041 -0.2296
 1536W        W 1566   4.956   2.376   0.271  0.0846 -0.0194 -0.2374
 1537W        W 1567   5.233   5.907   6.420 -0.1913  0.0994 -0.1884
 1538W        W 1568   3.120   2.094   3.832 -0.1731  0.0296 -0.2023
 1539W        W 1569   3.634   0.643   1.440  0.2539 -0.5519 -0.1120
 1540W        W 1570   3.582   4.042   0.374  0.1784 -0.2912 -0.1287
 1541W        W 1571   3.713   4.318   1.430  0.0097  0.0255  0.0481
 1542W        W 1572   4.390   2.073   1.589  0.1093  0.0634  0.0658
 1543W        W 1573   2.730   5.885   3.205 -0.1060 -0.2364  0.1917
 1544W        W 1574   5.021   1.983   1.731 -0.2028  0.3018  0.2333
 1545W        W 1575   1.901   1.438   0.748 -0.1034  0.0226 -0.0802
 1546W        W 1576   2.473   5.773   6.216  0.1273  0.0716 -0.0666
 1547W        W 1577   2.464   0.189   3.613  0.0564  0.0219  0.3161
 1548W        W 1578   2.105   0.715   4.016 -0.1624  0.0350  0.0892
 1549W        W 1579   4.488   3.436   4.561  0.4109 -0.1509  0.1114
 1550W        W 1580   5.804   1.206   0.853 -0.4128 -0.3292  0.0612
 1551W        W 1581   4.488   3.557   2.458  0.0645  0.0540 -0.1877
 1552W        W 1582   5.282   3.320   1.443  0.2127  0.0773 -0.0064
 1553W        W 1583   5.352   3.507   0.118 -0.0028  0.0065  0.0067
 1554W        W 1584   1.911   3.369   5.577  0.1594  0.0876  0.0085
 1555W        W 1585   3.768   2.388   3.359  0.0158  0.1764 -0.3364
 1556W        W 1586   2.043   0.535   5.201 -0.0586 -0.0739  0.1057
 1557W        W 1587   5.878   1.854   1.982  0.1610 -0.0742 -0.0658
 1558W        W 1588   6.260   0.861   4.775 -0.0205  0.1815  0.2220
 1559W        W 1589   4.833   2.342   4.201  0.3103  0.1548 -0.0361
 1560W        W 1590   1.858   4.312   0.353  0.3688  0.0934 -0.1542
 1561W        W 1591   4.143   1.038   0.176 -0.1193  0.0150 -0.0626
 1562W        W 1592   5.111   2.296   1.163 -0.2275  0.4196 -0.2124
 1563W        W 1593   2.347   5.523   0.445  0.1176  0.0606 -0.3372
 1564W        W 1594   1.860   1.506   5.162  0.0801  0.1676 -0.3072
 1565W        W 1595   3.402   3.468   0.150  0.1131  0.1907  0.2159
 1566W        W 1596   2.359   4.509   0.388 -0.1124  0.0949 -0.0600
 1567W        W 1597   2.228   3.141   1.659 -0.2313 -0.1234  0.1811
 1568W        W 1598   5.116   3.688   5.190  0.0173  0.2939  0.0745
 1569W        W 1599   2.561   2.238   0.883  0.0547 -0.2450 -0.0251
 1570W        W 1600   0.141   4.465   3.334 -0.0849  0.0707  0.4093
 1571W        W 1601   0.440   1.004   5.381  0.2602 -0.1674 -0.1434
 1572W        W 1602   4.512   4.285   1.486 -0.2118 -0.0251 -0.0237
 1573W        W 1603   3.742   5.685   5.821  0.1758 -0.0019  0.1085
 1574W        W 1604   5.534   5.679   6.038  0.0820  0.0401 -0.0525
 1575W        W 1605   0.215   1.310   1.183 -0.1620 -0.0436  0.0782
 1576W        W 1606   6.023   3.254   2.276  0.0429  0.0375 -0.1282
 1577W        W 1607   3.763   1.304   4.886  0.0128 -0.3232  0.2329
 1578W        W 1608   6.117   2.361   1.810 -0.0155  0.1007 -0.0644
 1579W        W 1609   2.701   4.105   1.775  0.0704 -0.1820  0.0736
 1580W        W 1610   1.237   0.773   4.064 -0.0255 -0.0296 -0.2701
 1581W        W 1611   0.140   4.263   5.394 -0.0103  0.0570 -0.1192
 1582W        W 1612   1.678   3.222   2.960  0.0629  0.0450 -0.3241
 1583W        W 1613   3.445   0.508   0.987 -0.1909 -0.2635  0.0295
 1584W        W 1614   0.542   4.974   6.103  0.1675  0.1137  0.1370
 1585W        W 1615   0.280   1.652   1.601  0.1237  0.1064  0.1299
 1586W        W 1616   2.915   6.083   1.770 -0.1837  0.0492 -0.1537
 1587W        W 1617   2.501   0.859   0.879 -0.0640  0.0068 -0.2226
 1588W        W 1618   4.670   5.734   0.012  0.0078 -0.2290  0.0187
 1589W        W 1619   1.597   4.720   1.116 -0.0094 -0.1976 -0.0902
 1590W        W 1620   1.297   6.190   3.175 -0.0211 -0.0828 -0.0998
 1591W        W 1621   3.103   2.010   1.577 -0.1877  0.0654  0.0803
 1592W        W 1622   5.507   5.922   2.066 -0.1354 -0.0284  0.0663
 1593W        W 1623   2.908   6.404   2.197 -0.0322 -0.1055 -0.0636
 1594W        W 1624   6.159   5.512   4.714  0.1653 -0.0976  0.0443
 1595W        W 1625   6.362   1.101   0.359 -0.1476  0.0189  0.3121
 1596W        W 1626   3.252   4.734   1.835  0.0741  0.3143  0.2367
 1597W        W 1627   0.755   1.540   2.891 -0.1410 -0.2034  0.0554
 1598W        W 1628   3.903   5.523   2.047  0.2117  0.0230  0.0818
 1599W        W 1629   2.012   2.947   0.185 -0.2090 -0.0211 -0.1657
 1600W        W 1630   1.737   0.880   3.657  0.1824 -0.0125  0.0931
 1601W        W 1631   0.002   1.458   4.047  0.0198 -0.1238 -0.0028
 1602W        W 1632   4.223   0.976   6.020  0.2142 -0.3056  0.1470
 1603W        W 1633   0.330   4.950   3.362 -0.0978  0.0504 -0.1004
 1604W        W 1634   4.078   4.156   0.218 -0.1011  0.0764 -0.0026
 1605W        W 1635   0.665   1.991   4.350 -0.1294 -0.0002 -0.1675
 1606W        W 1636   5.898   1.204   1.414  0.1920  0.1067 -0.0113
 1607W        W 1637   1.700   5.977   6.265 -0.0412 -0.0080  0.1913
 1608W        W 1638   6.135   2.715   4.394 -0.2076  0.0186 -0.1706
 1609W        W 1639   4.003   1.858   4.054  0.0818 -0.2241  0.4034
 1610W        W 1640   3.933   3.093   5.376  0.0450 -0.1524 -0.1201
 1611W        W 1641   2.284   3.887   1.598 -0.1634 -0.0284 -0.1490
 1612W        W 1642   4.526   3.906   4.358  0.0638 -0.1950  0.1172
 1613W        W 1643   1.161   2.879   4.105  0.1131  0.1000  0.2171
 1614W        W 1644   0.729   5.392   1.500 -0.0324  0.1190  0.1626
 1615W        W 1645   0.002   1.925   1.218 -0.0866 -0.0173 -0.2988
 1616W        W 1646   5.007   1.747   3.027 -0.1029  0.1449 -0.1804
 1617W        W 1647   0.656   3.501   2.436  0.3194  0.1686 -0.0958
 1618W        W 1648   4.337   0.208   5.311 -0.2187  0.1642  0.0945
 1619W        W 1649   0.723   2.286   0.115 -0.1654 -0.0180  0.0815
 1620W        W 1650   4.849   1.113   0.348  0.1651 -0.0283 -0.0819
 1621W        W 1651   4.123   5.874   2.413 -0.2164  0.1751 -0.2787
 1622W        W 1652   6.398   0.636   2.427 -0.2496  0.2320  0.2424
 1623W        W 1653   4.714   5.142   0.593 -0.1950 -0.2070  0.0423
 1624W        W 1654   2.557   1.729   1.741  0.0889  0.3496  0.1391
 1625W        W 1655   2.708   5.279   4.664 -0.0047  0.0615 -0.0704
 1626W        W 1656   1.497   5.084   2.069 -0.0062  0.0315  0.2361
 1627W        W 1657   5.832   1.798   3.343  0.0661  0.1414 -0.0831
 1628W        W 1658   6.427   5.748   3.786  0.0193  0.1660  0.1235
 1629W        W 1659   2.609   1.476   2.220 -0.1178 -0.1413  0.0850
 1630W        W 1660   4.971   4.269   4.202  0.2447 -0.0799  0.1305
 1631W        W 1661   0.130   5.549   3.366 -0.0090 -0.0410  0.0948
 1632W        W 1662   0.921   4.862   5.360 -0.4336  0.0214  0.0297
 1633W        W 1663   5.811   6.164   3.221  0.0225 -0.1292 -0.0944
 1634W        W 1664   1.773   0.887   2.060 -0.2034 -0.1701 -0.2773
 1635W        W 1665   4.808   4.744   3.769 -0.0958  0.0006  0.2691
 1636W        W 1666   6.125   4.240   2.002  0.2127  0.2645 -0.0518
 1637W        W 1667   5.700   4.616   3.517 -0.1562 -0.1008  0.2848
 1638W        W 1668   3.130   3.626   5.815  0.1590 -0.0391  0.1064
 1639W        W 1669   3.317   0.350   3.981  0.0391 -0.0254 -0.0317
 1640W        W 1670   2.858   0.734   4.168  0.0962 -0.3694  0.2116
 1641W        W 1671   2.036   3.692   3.060 -0.2780  0.1148 -0.0362
 1642W        W 1672   1.709   5.070   6.108 -0.0335 -0.0394  0.0167
 1643W        W 1673   1.054   5.419   0.140 -0.0750  0.0324  0.2320
 1644W        W 1674   1.339   5.326   5.201 -0.0909 -0.0510 -0.0600
 1645W        W 1675   0.198   0.414   3.248  0.0247 -0.1615 -0.0113
 1646W        W 1676   1.940   4.313   3.638 -0.0406 -0.0383 -0.0206
 1647W        W 1677   3.292   5.087   3.242 -0.1384 -0.3325 -0.0983
 1648W        W 1678   5.167   3.386   2.903  0.1472 -0.0718 -0.1518
 1649W        W 1679   5.701   4.937   1.999  0.0058 -0.2789 -0.1272
 1650W        W 1680   4.654   0.795   4.742 -0.2056 -0.0597 -0.1070
 1651W        W 1681   0.178   1.148   4.950 -0.2634  0.1697 -0.2722
 1652W        W 1682   3.766   2.219   6.157 -0.1853 -0.1567  0.0966
 1653W        W 1683   2.464   5.801   1.457  0.0934 -0.5888  0.1451
 1654W        W 1684   4.570   4.998   1.165  0.0697 -0.2596  0.2734
 1655W        W 1685   5.152   1.064   4.448 -0.1012  0.2680 -0.0244
 1656W        W 1686   2.012   4.526   0.903 -0.1616  0.1930 -0.3320
 1657W        W 1687   3.110   6.061   4.982 -0.0478  0.1418 -0.0995
 1658W        W 1688   0.615   1.294   1.438  0.0285 -0.3337 -0.0699
 1659W        W 1689   3.582   6.342   4.036  0.2370 -0.1381  0.1065
 1660W        W 1690   5.038   4.246   2.549  0.2776 -0.3459 -0.0165
 1661W        W 1691   0.682   5.105   4.029 -0.2057  0.0222 -0.0403
 1662W        W 1692   2.920   6.398   3.307  0.1767  0.4179 -0.2324
 1663W        W 1693   5.476   4.326   5.384  0.1456  0.0838  0.0142
 1664W        W 1694   1.060   5.047   4.850  0.2126  0.0843  0.0710
 1665W        W 1695   0.216   3.493   2.064 -0.0478 -0.0017  0.1481
 1666W        W 1696   2.469   0.623   2.345  0.0099  0.0208 -0.2396
 1667W        W 1697   4.066   1.436   4.484 -0.0385 -0.0561 -0.1138
 1668W        W 1698   6.074   3.311   3.137  0.0376 -0.1181  0.0289
 1669W        W 1699   2.447   0.013   1.288 -0.4121 -0.1925  0.2231
 1670W        W 1700   1.936   3.925   2.001 -0.2090  0.0960  0.3309
 1671W        W 1701   4.244   4.171   2.711  0.0643 -0.0560 -0.0631
 1672W        W 1702   1.116   5.294   1.861 -0.2843  0.0833 -0.0572
 1673W        W 1703   1.170   4.501   4.903  0.1188  0.1441 -0.0072
 1674W        W 1704   2.883   3.960   0.891  0.1184  0.1974  0.2794
 1675W        W 1705   6.303   4.191   2.557 -0.2683 -0.0243 -0.0201
 1676W        W 1706   5.846   3.082   4.333  0.0035  0.0271 -0.4901
 1677W        W 1707   5.568   2.690   0.222  0.1298  0.0478  0.0225
 1678W        W 1708   3.493   1.874   4.121  0.0970 -0.1071 -0.1363
 1679W        W 1709   5.289   2.813   2.946 -0.1050  0.1084 -0.1173
 1680W        W 1710   2.708   2.296   1.387 -0.0056  0.0111 -0.0178
 1681W        W 1711   2.028   0.154   3.206  0.2650  0.2572 -0.1305
 1682W        W 1712   3.544   5.061   2.770 -0.1186  0.0453 -0.0507
 1683W        W 1713   5.280   4.648   3.226  0.2026 -0.2586  0.0241
 1684W        W 1714   6.159   0.343   1.198 -0.2459  0.2186  0.0295
 1685W        W 1715   3.813   3.328   2.789  0.1136 -0.1398 -0.0616
 1686W        W 1716   5.243   1.997   4.087 -0.1274  0.1339 -0.1133
 1687W        W 1717   4.375   5.103   3.093 -0.3131  0.2108 -0.1810
 1688W        W 1718   0.211   4.244   4.280 -0.2998 -0.1285  0.3587
 1689W        W 1719   5.648   2.189   3.798  0.0613  0.1095 -0.1548
 1690W        W 1720   2.198   0.573   3.506 -0.1141  0.1561  0.0147
 1691W        W 1721   0.658   5.385   3.160  0.1064  0.1092 -0.2603
 1692W        W 1722   4.823   6.376   4.011 -0.0425 -0.1166  0.0343
 1693W        W 1723   1.756   2.963   1.460 -0.2207 -0.0068 -0.1487
 1694W        W 1724   1.984   4.833   3.574 -0.2060  0.2001 -0.1244
 1695W        W 1725   3.769   1.931   0.874 -0.2922 -0.0113 -0.1301
 1696W        W 1726   3.648   6.170   0.590  0.0833 -0.1254  0.4583
 1697W        W 1727   3.082   4.733   4.060 -0.0913  0.1421  0.2171
 1698W        W 1728   4.996   2.256   5.716 -0.0417  0.0417 -0.2178
 1699W        W 1729   5.392   1.972   3.411  0.1413 -0.0091 -0.2170
 1700W        W 1730   4.465   0.187   0.094  0.2242 -0.1882 -0.1140
 1701W        W 1731   0.269   1.634   3.623 -0.0646 -0.3853 -0.0364
 1702W        W 1732   4.708   1.274   3.804  0.0122 -0.0394  0.0719
 1703W        W 1733   2.018   3.418   1.063 -0.1144  0.1137 -0.0648
 1704W        W 1734   1.134   4.762   3.336  0.0900 -0.1548 -0.2212
 1705W        W 1735   1.996   0.060   2.001 -0.1680  0.0939  0.0399
 1706W        W 1736   0.684   4.578   3.442 -0.0013 -0.2063  0.2841
 1707W        W 1737   1.618   6.336   2.300  0.0726  0.0384 -0.0687
 1708W        W 1738   5.943   3.827   3.466  0.1579  0.2193  0.0784
 1709W        W 1739   2.317   0.833   5.999 -0.1268  0.0171 -0.0502
 1710W        W 1740   1.958   5.203   2.696 -0.1379 -0.2501  0.1953
 1711W        W 1741   2.903   1.827   3.487 -0.1196 -0.3421  0.0990
 1712W        W 1742   5.081   3.632   1.104  0.0560  0.2680  0.1071
 1713W        W 1743   0.960   4.774   1.809  0.5913  0.3262  0.0388
 1714W        W 1744   6.194   0.226   3.937 -0.0479  0.1781 -0.2132
 1715W        W 1745   4.849   0.592   2.512 -0.2952 -0.0352 -0.0968
 1716W        W 1746   5.143   2.627   6.376  0.0599 -0.3297  0.1839
 1717W        W 1747   3.108   2.462   1.222  0.2316  0.0438  0.0090
 1718W        W 1748   0.743   5.058   3.527 -0.3515  0.1095 -0.2693
 1719W        W 1749   1.945   1.509   3.901  0.1208 -0.0090  0.0344
 1720W        W 1750   3.968   5.058   1.255  0.0937  0.1298  0.0393
 1721W        W 1751   2.116   4.225   3.190  0.0945 -0.2286  0.3082
 1722W        W 1752   6.109   2.312   4.047 -0.1892  0.3099 -0.0687
 1723W        W 1753   6.001   3.677   5.537 -0.0276  0.2126 -0.2248
 1724W        W 1754   4.822   3.426   1.592  0.2319  0.2102  0.0796
 1725W        W 1755   3.501   5.650   0.988 -0.0562 -0.0327 -0.1414
 1726W        W 1756   1.573   1.625   2.062 -0.2549 -0.0318 -0.3586
 1727W        W 1757   5.401   3.468   4.246 -0.1572 -0.0224  0.0377
 1728W        W 1758   1.367   3.198   5.666 -0.0324 -0.1333 -0.0860
 1729W        W 1759   5.137   5.040   4.192 -0.3839  0.1579 -0.1643
 1730W        W 1760   6.169   3.281   0.373  0.1318  0.1035  0.3267
 1731W        W 1761   0.873   1.481   3.519  0.0290 -0.1824 -0.2526
 1732W        W 1762   0.114   5.831   5.723  0.1980 -0.2371 -0.0714
 1733W        W 1763   0.851   0.226   6.187  0.2180 -0.1469 -0.0682
 1734W        W 1764   5.883   2.948   4.806 -0.1730 -0.0202  0.1194
 1735W        W 1765   3.113   1.423   3.054 -0.0338  0.0748 -0.3142
 1736W        W 1766   0.296   3.241   2.661  0.0798  0.0582 -0.3628
 1737W        W 1767   1.768   3.513   4.775 -0.1879  0.1723 -0.0696
 1738W        W 1768   1.628   3.977   1.525  0.0048 -0.1483  0.0567
 1739W        W 1769   3.331   5.770   0.548 -0.1301 -0.3416  0.0852
 1740W        W 1770   4.297   1.254   0.629 -0.2004  0.2437  0.0104
 1741W        W 1771   4.479   3.147   6.033 -0.1309  0.0514  0.2865
 1742W        W 1772   1.239   2.152   5.024 -0.0528  0.0629 -0.1545
 1743W        W 1773   3.385   1.558   1.649 -0.1858 -0.2104 -0.1850
 1744W        W 1774   2.233   4.391   4.984  0.0305  0.0013  0.0381
 1745W        W 1775   5.098   4.587   2.080 -0.1225  0.0979 -0.2114
 1746W        W 1776   4.972   1.493   4.182  0.0579  0.1530  0.0430
 1747W        W 1777   0.515   2.852   2.908 -0.3099 -0.0222 -0.0554
 1748W        W 1778   0.535   0.425   1.558 -0.1054 -0.1006  0.0200
 1749W        W 1779   2.907   2.886   5.386 -0.0714 -0.3128 -0.1529
 1750W        W 1780   1.306   2.723   1.388  0.1277 -0.1324  0.1586
 1751W        W 1781   3.017   0.673   0.253  0.5276  0.0899  0.0770
 1752W        W 1782   0.044   6.371   5.881 -0.0276  0.1012  0.0506
 1753W        W 1783   4.853   0.811   1.976  0.2432  0.2470 -0.0287
 1754W        W 1784   0.654   5.015   1.095  0.1144 -0.3063  0.0940
 1755W        W 1785   0.832   3.900   5.538 -0.0667  0.2053  0.2413
 1756W        W 1786   0.614   3.884   1.586  0.0492 -0.3314 -0.0733
 1757W        W 1787   2.744   0.930   5.094  0.0628 -0.0258  0.1083
 1758W        W 1788   5.640   2.032   4.880 -0.2294  0.0185 -0.0936
 1759W        W 1789   5.130   0.612   4.190 -0.0310 -0.1902  0.0648
 1760W        W 1790   3.560   3.319   0.600  0.5312 -0.0289  0.1072
 1761W        W 1791   0.716   5.694   2.737  0.3972  0.3531 -0.1117
 1762W        W 1792   3.339   4.860   0.428  0.0108 -0.1672  0.4716
 1763W        W 1793   1.166   2.678   4.582 -0.1608 -0.0708 -0.1035
 1764W        W 1794   3.332   2.953   1.628  0.0255 -0.0205  0.0119
 1765W        W 1795   2.764   1.309   3.591  0.0885 -0.1048 -0.2095
 1766W        W 1796   3.429   2.882   5.511  0.1408 -0.0951 -0.0548
 1767W        W 1797   1.416   4.928   2.975 -0.3270  0.1709  0.1896
 1768W        W 1798   5.443   1.109   6.314  0.0310 -0.0779  0.0089
 1769W        W 1799   0.973   2.614   5.100 -0.1668 -0.0340  0.2377
 1770W        W 1800   4.235   5.993   4.473 -0.0550 -0.0113 -0.0368
 1771W        W 1801   1.246   3.384   3.957 -0.1048 -0.0166 -0.1030
 1772W        W 1802   5.487   0.644   0.195  0.1285 -0.1728  0.1880
 1773W        W 1803   2.075   3.440   6.366  0.1090 -0.1055  0.0588
 1774W        W 1804   1.133   0.794   5.002  0.1293  0.2017  0.2996
 1775W        W 1805   0.351   0.390   2.316  0.1613  0.0524  0.0097
 1776W        W 1806   5.683   5.929   5.525  0.0814 -0.1324 -0.1551
 1777W        W 1807   5.054   1.424   2.416 -0.0236  0.1285 -0.0242
 1778W        W 1808   2.103   3.275   5.029 -0.1217  0.0811 -0.0129
 1779W        W 1809   1.089   3.125   0.478 -0.1838  0.2096 -0.1547
 1780W        W 1810   4.438   2.722   1.329  0.1248  0.1065 -0.0308
 1781W        W 1811   3.944   2.388   2.812 -0.3419 -0.1926 -0.0546
 1782W        W 1812   1.847   3.550   1.639 -0.1065  0.0249  0.2213
 1783W        W 1813   6.043   3.994   1.072  0.2795  0.1448  0.0890
 1784W        W 1814   6.427   1.335   6.382 -0.0523 -0.0943  0.2526
 1785W        W 1815   2.460   6.449   3.044 -0.0601  0.3303  0.4123
 1786W        W 1816   6.263   0.013   4.428  0.0320  0.1698 -0.4029
 1787W        W 1817   5.710   5.239   3.484 -0.2645  0.0654 -0.1493
 1788W        W 1818   2.440   3.077   5.311  0.0079 -0.0041 -0.0323
 1789W        W 1819   0.981   5.421   2.345 -0.0533  0.0915  0.0643
 1790W        W 1820   4.944   0.272   0.998 -0.1209  0.0066 -0.0066
 1791W        W 1821   3.019   4.987   6.419  0.1191 -0.2696  0.2039
 1792W        W 1822   5.071   3.699   5.831 -0.2919 -0.2504 -0.0209
 1793W        W 1823   1.652   6.163   0.771 -0.0090  0.0898  0.1185
 1794W        W 1824   6.140   4.176   4.403 -0.3026 -0.0210  0.1851
 1795W        W 1825   1.011   1.718   3.980 -0.1396 -0.0447  0.0620
 1796W        W 1826   2.140   6.291   0.928 -0.3125  0.3634 -0.0516
 1797W        W 1827   1.417   4.742   4.505  0.0041  0.0740  0.2935
 1798W        W 1828   4.284   0.275   6.025 -0.0023  0.0550  0.0062
 1799W        W 1829   5.995   3.725   0.402 -0.2072 -0.0796 -0.0342
 1800W        W 1830   3.142   3.393   1.450 -0.1334 -0.1012  0.0442
 1801W        W 1831   1.669   3.335   0.173 -0.1789 -0.0843  0.0600
 1802W        W 1832   4.285   4.312   0.751 -0.0554  0.1351 -0.0322
 1803W        W 1833   2.545   3.247   3.580  0.0772  0.1483  0.0942
 1804W        W 1834   0.258   4.790   3.987 -0.3614  0.0924 -0.0290
 1805W        W 1835   5.548   4.146   3.521 -0.0036  0.2371  0.1510
 1806W        W 1836   4.333   1.454   5.771 -0.1692  0.0520  0.0057
 1807W        W 1837   5.721   2.635   3.540  0.0669 -0.3949  0.0694
 1808W        W 1838   1.893   6.444   5.563  0.2438 -0.1933  0.0786
 1809W        W 1839   3.155   1.512   3.863 -0.0239 -0.2699  0.1095
 1810W        W 1840   2.532   4.493   4.221  0.0322  0.2100 -0.0794
 1811W        W 1841   1.287   0.679   1.862 -0.0275  0.1100 -0.1941
 1812W        W 1842   4.421   0.289   3.954  0.2798  0.0108 -0.3864
 1813W        W 1843   3.614   1.407   4.203 -0.0713 -0.0329  0.0843
 1814W        W 1844   5.653   2.332   1.965 -0.3888  0.2087 -0.0213
 1815W        W 1845   1.779   3.106   6.206  0.1109  0.1955 -0.3818
 1816W        W 1846   2.885   4.181   5.557 -0.0497  0.0230 -0.1110
 1817W        W 1847   4.645   4.521   6.074  0.0320  0.1309  0.1090
 1818W        W 1848   0.467   2.525   1.917  0.2079  0.1091 -0.2566
 1819W        W 1849   0.825   3.148   3.876  0.1806 -0.2998  0.2505
 1820W        W 1850   0.723   0.596   5.308  0.0582  0.2539 -0.2437
 1821W        W 1851   4.335   3.762   1.611  0.1180  0.0014 -0.0765
 1822W        W 1852   4.732   3.358   5.047 -0.2224 -0.1033 -0.4828
 1823W        W 1853   5.558   0.383   1.336 -0.1687  0.3994  0.3289
 1824W        W 1854   2.601   1.728   4.576  0.0695 -0.2440  0.2002
 1825W        W 1855   2.222   3.956   0.110 -0.1669 -0.1340  0.1080
 1826W        W 1856   1.683   0.565   0.253 -0.3992  0.0769 -0.2538
 1827W        W 1857   4.589   0.166   4.863  0.1619 -0.2993  0.1182
 1828W        W 1858   4.845   3.918   1.486 -0.1709  0.5071  0.1142
 1829W        W 1859   5.089   6.238   0.652 -0.1614 -0.0593  0.4146
 1830W        W 1860   5.096   0.309   2.126 -0.3094  0.1002  0.1261
 1831W        W 1861   4.086   1.077   5.527 -0.2332  0.1243  0.2024
 1832W        W 1862   5.970   3.191   5.502  0.0699  0.1293  0.0702
 1833W        W 1863   0.187   1.264   0.697 -0.0315  0.0284 -0.0321
 1834W        W 1864   5.219   6.299   4.671  0.3523 -0.2992  0.1291
 1835W        W 1865   2.942   5.944   5.954 -0.3849 -0.1031 -0.2004
 1836W        W 1866   1.135   5.243   3.314 -0.1821  0.1358 -0.1950
 1837W        W 1867   0.462   2.282   0.983  0.0326  0.4831 -0.0007
 1838W        W 1868   1.062   3.723   3.126  0.3217 -0.3321  0.1654
 1839W        W 1869   3.906   1.131   1.412 -0.0838  0.0819 -0.1422
 1840W        W 1870   5.356   5.385   3.975 -0.1505 -0.3078 -0.1049
 1841W        W 1871   1.171   4.979   3.760  0.1758 -0.2728 -0.1472
 1842W        W 1872   2.927   3.349   5.404 -0.0792 -0.1673 -0.2438
 1843W        W 1873   3.207   3.312   2.022  0.0693 -0.2301 -0.0185
 1844W        W 1874   3.772   5.950   4.286  0.0926  0.1608  0.1499
 1845W        W 1875   2.198   3.841   5.280  0.0924 -0.0281  0.3269
 1846W        W 1876   2.017   2.683   1.723  0.2307 -0.2608  0.2943
 1847W        W 1877   5.244   1.485   1.612  0.0575  0.3012 -0.1194
 1848W        W 1878   5.280   4.650   5.997  0.0289  0.4956 -0.0131
 1849W        W 1879   5.338   3.812   2.729  0.2136  0.2174  0.2088
 1850W        W 1880   1.360   4.239   0.260 -0.1394  0.1377  0.2474
 1851W        W 1881   5.731   2.347   3.092  0.1868 -0.0254  0.1985
 1852W        W 1882   1.473   1.532   3.953 -0.4067 -0.0276  0.0328
 1853W        W 1883   5.904   4.761   0.558  0.0209  0.1864 -0.1018
 1854W        W 1884   2.799   0.177   4.988  0.0487 -0.1651 -0.4297
 1855W        W 1885   2.244   4.707   5.499 -0.4048  0.4019  0.0037
 1856W        W 1886   2.923   4.594   3.572 -0.1069  0.2103 -0.2015
 1857W        W 1887   1.675   4.159   4.022 -0.0554 -0.2892 -0.1480
 1858W        W 1888   4.347   5.593   2.921 -0.2147  0.0376  0.0023
 1859W        W 1889   0.690   0.031   2.526  0.1975 -0.2257  0.0164
 1860W        W 1890   6.058   1.254   5.000  0.0908 -0.2095 -0.0073
 1861W        W 1891   4.429   3.183   4.152  0.2586 -0.0164 -0.3029
 1862W        W 1892   5.681   0.818   3.394  0.0118 -0.0411  0.3128
 1863W        W 1893   4.317   4.921   1.624  0.0589  0.0856 -0.1490
 1864W        W 1894   4.514   5.358   2.450 -0.1867 -0.0518 -0.1581
 1865W        W 1895   2.489   1.417   3.156  0.0331 -0.0575 -0.1990
 1866W        W 1896   3.201   1.840   5.099 -0.3676  0.0679 -0.1331
 1867W        W 1897   5.122   4.619   5.532  0.0629 -0.0368 -0.3600
 1868W        W 1898   5.440   2.917   1.684 -0.2979 -0.0598 -0.2021
 1869W        W 1899   3.791   2.173   2.336  0.1567 -0.0881 -0.2436
 1870W        W 1900   3.365   3.744   3.402  0.0029 -0.1299  0.0909
 1871W        W 1901   5.851   3.594   6.371 -0.0206 -0.1175  0.1296
 1872W        W 1902   4.242   2.169   4.974  0.0293  0.1895 -0.1363
 1873W        W 1903   2.968   2.569   6.093 -0.1359 -0.1439 -0.0501
 1874W        W 1904   2.284   5.805   3.989  0.1359 -0.0048  0.4314
 1875W        W 1905   5.265   2.286   2.906 -0.5111 -0.0792  0.0049
 1876W        W 1906   5.741   5.033   3.997 -0.0573 -0.0413  0.0244
 1877W        W 1907   0.328   0.463   0.113  0.2822 -0.1561 -0.0226
 1878W        W 1908   1.712   6.192   3.496 -0.6147 -0.0527  0.1312
 1879W        W 1909   0.613   4.365   5.726  0.2760  0.2499  0.1687
 1880W        W 1910   0.358   1.013   4.135  0.3531  0.0943 -0.0935
 1881W        W 1911   6.417   3.208   6.243 -0.3895 -0.0655  0.2724
 1882W        W 1912   2.411   1.355   5.137 -0.2235 -0.2481 -0.0116
 1883W        W 1913   4.311   5.836   3.801 -0.3324  0.3798 -0.1820
 1884W        W 1914   3.819   4.122   2.408 -0.1177 -0.2128  0.1419
 1885W        W 1915   0.722   6.032   4.406 -0.1635 -0.0391 -0.1354
 1886W        W 1916   5.101   2.098   4.919 -0.0348 -0.0191  0.2324
 1887W        W 1917   1.359   4.570   1.543  0.0124 -0.0049  0.3733
 1888W        W 1918   6.367   4.007   5.735  0.1048  0.0153  0.1341
 1889W        W 1919   2.753   2.449   5.657 -0.0069 -0.3918 -0.1258
 1890W        W 1920   3.973   0.403   2.525 -0.0486  0.1270 -0.1030
 1891W        W 1921   5.538   1.702   2.951 -0.2283  0.0265 -0.0260
 1892W        W 1922   5.801   4.506   4.720  0.4132  0.0020 -0.4537
 1893W        W 1923   4.437   2.251   5.616  0.1390  0.0528 -0.0338
 1894W        W 1924   4.803   5.087   4.598 -0.1842 -0.0549  0.0903
 1895W        W 1925   5.171   2.275   2.203 -0.2136  0.1183 -0.1079
 1896W        W 1926   4.959   1.074   0.886 -0.0330  0.3566  0.1556
 1897W        W 1927   3.197   4.719   2.745 -0.1367 -0.0784 -0.1168
 1898W        W 1928   3.110   5.951   2.365  0.1404 -0.2737  0.0355
 1899W        W 1929   1.734   4.928   5.512  0.0972  0.3382 -0.1247
 1900W        W 1930   3.023   3.521   0.901 -0.1962  0.5223  0.0924
 1901W        W 1931   1.408   0.316   6.387 -0.0149 -0.1533 -0.2877
 1902W        W 1932   1.057   2.239   4.271 -0.1589  0.1879  0.1023
 1903W        W 1933   5.884   5.245   2.917 -0.0023  0.3215  0.0228
 1904W        W 1934   0.075   3.064   1.406  0.2782  0.0855  0.1325
 1905W        W 1935   1.497   2.755   0.123  0.1276  0.2391  0.1433
 1906W        W 1936   3.683   1.819   5.019  0.1305  0.3355  0.0845
 1907W        W 1937   5.775   3.467   4.706  0.1510  0.0094 -0.0654
 1908W        W 1938   1.107   3.527   2.644 -0.0626 -0.2174 -0.1699
 1909W        W 1939   5.289   5.136   3.032 -0.0854  0.1003  0.4297
 1910W        W 1940   0.245   2.604   0.502  0.2125  0.0292 -0.1179
 1911W        W 1941   5.396   4.618   4.031  0.2299 -0.5918  0.0289
 1912W        W 1942   1.163   2.678   0.755  0.1028  0.0691  0.2139
 1913W        W 1943   3.302   4.491   3.215 -0.1900 -0.0617  0.1788
 1914W        W 1944   2.100   6.143   5.972  0.0631  0.1365  0.0212
 1915W        W 1945   4.645   3.535   3.732  0.1106 -0.1461 -0.0835
 1916W        W 1946   0.417   2.493   5.111  0.0750 -0.0325 -0.2712
 1917W        W 1947   2.393   2.699   6.308 -0.0082  0.1240 -0.0279
 1918W        W 1948   3.926   5.438   2.555 -0.0539  0.1700  0.1089
 1919W        W 1949   2.740   0.180   0.370  0.0353  0.0506 -0.0004
 1920W        W 1950   2.843   4.896   3.096  0.2547 -0.3931  0.1240
 1921W        W 1951   1.620   0.452   3.373 -0.5182  0.2037 -0.2256
 1922W        W 1952   5.988   1.539   2.893 -0.1023 -0.0701 -0.0671
 1923W        W 1953   3.403   2.454   3.734  0.0482  0.0397  0.0550
 1924W        W 1954   5.173   1.312   2.902  0.0421  0.0133 -0.2552
 1925W        W 1955   4.619   1.872   3.420 -0.1424  0.0189  0.1461
 1926W        W 1956   6.214   4.353   1.463 -0.1746 -0.0492 -0.0255
 1927W        W 1957   4.616   5.894   1.683 -0.0602 -0.0379 -0.2023
 1928W        W 1958   4.324   4.005   2.220  0.0274  0.0291  0.2878
 1929W        W 1959   4.783   1.821   3.889  0.1825 -0.3108 -0.0998
 1930W        W 1960   2.495   2.685   1.667  0.1102 -0.0937 -0.0649
 1931W        W 1961   5.066   5.505   6.131  0.0806 -0.3670 -0.1780
 1932W        W 1962   2.409   2.989   3.922  0.3425 -0.3246  0.1604
 1933W        W 1963   1.549   6.110   2.721 -0.2782 -0.3109  0.0304
 1934W        W 1964   2.523   1.959   3.167  0.2590  0.1984  0.0428
 1935W        W 1965   5.270   0.638   0.966  0.0911 -0.0394  0.0371
 1936W        W 1966   6.361   4.342   0.832  0.2198 -0.0996  0.1806
 1937W        W 1967   0.342   4.675   2.905 -0.2295  0.0912 -0.0021
 1938W        W 1968   3.602   5.807   5.264 -0.3207 -0.1958  0.4757
 1939W        W 1969   1.826   1.990   2.882  0.2831 -0.0293  0.0410
 1940W        W 1970   1.881   4.880   4.414 -0.3374  0.0305 -0.1451
 1941W        W 1971   0.591   5.106   2.015 -0.0674  0.0482 -0.1807
 1942W        W 1972   2.529   3.849   3.102  0.0632  0.1005 -0.2025
 1943W        W 1973   4.691   6.363   5.677 -0.0667 -0.0890  0.1725
 1944W        W 1974   2.190   3.511   2.083 -0.0258 -0.0808  0.1586
 1945W        W 1975   3.951   0.458   0.967  0.0151 -0.2669  0.0318
 1946W        W 1976   2.955   0.993   3.210 -0.0456  0.3181 -0.2372
 1947W        W 1977   4.062   3.881   3.657 -0.0185 -0.3536  0.0533
 1948W        W 1978   1.245   3.215   1.595  0.0086  0.1190 -0.1829
 1949W        W 1979   0.450   5.078   5.050 -0.0113  0.1076 -0.1938
 1950W        W 1980   1.166   0.674   5.553  0.0623  0.1792  0.0228
 1951W        W 1981   3.348   2.282   4.830  0.1286  0.1964  0.1269
 1952W        W 1982   3.746   4.630   1.046 -0.3245  0.2128  0.0533
 1953W        W 1983   5.839   5.586   2.516 -0.1024 -0.1561 -0.0118
 1954W        W 1984   3.151   6.026   2.958  0.1118 -0.1655  0.0651
 1955W        W 1985   1.338   1.813   6.448 -0.0465  0.1437  0.0564
 1956W        W 1986   3.901   5.665   3.510  0.0038  0.2752 -0.0235
 1957W        W 1987   0.994   3.937   4.513  0.0290 -0.0360 -0.0686
 1958W        W 1988   5.535   2.539   6.105 -0.3640 -0.3180 -0.0537
 1959W        W 1989   0.385   4.798   5.666  0.0021  0.3465 -0.1480
 1960W        W 1990   5.370   1.213   2.035  0.0147  0.4816 -0.0044
 1961W        W 1991   1.630   4.946   4.009 -0.1060  0.0650  0.0179
 1962W        W 1992   6.336   0.968   4.167  0.1102 -0.2660  0.1762
 1963W        W 1993   5.112   4.925   1.335 -0.1877  0.2325 -0.2910
 1964W        W 1994   2.285   3.531   3.953 -0.1690  0.1803 -0.1158
 1965W        W 1995   4.355   1.544   3.649 -0.1430 -0.0540  0.2691
 1966W        W 1996   4.039   2.350   5.745  0.2154 -0.0823 -0.0589
 1967W        W 1997   2.940   5.659   0.997 -0.1403 -0.0859  0.0879
 1968W        W 1998   0.720   5.622   4.162  0.1414 -0.0674 -0.0486
 1969W        W 1999   5.685   2.994   2.635 -0.2449  0.0233 -0.0425
 1970W        W 2000   3.127   0.986   5.548 -0.0195 -0.0048 -0.1803
 1971W        W 2001   5.683   3.614   3.072  0.1223  0.1230  0.0900
 1972W        W 2002   2.337   5.623   2.447 -0.0795  0.1275 -0.1485
 1973W        W 2003   0.921   2.491   2.171  0.2146  0.0530 -0.0026
 1974W        W 2004   3.388   3.382   3.986  0.0020  0.1895  0.0039
 1975W        W 2005   2.641   0.776   3.651  0.2802 -0.0481  0.2851
 1976W        W 2006   3.756   1.038   3.749 -0.0683 -0.2722 -0.2539
 1977W        W 2007   5.554   3.126   6.351 -0.0061 -0.1574  0.0164
 1978W        W 2008   2.092   4.323   4.454 -0.2677  0.1575 -0.0182
 1979W        W 2009   1.899   5.748   2.675  0.2214  0.1901  0.1298
 1980W        W 2010   4.257   2.163   2.483  0.0626 -0.0383 -0.4331
 1981W        W 2011   2.388   5.040   3.355 -0.2878  0.0431  0.0309
 1982W        W 2012   0.122   2.677   2.693  0.0617  0.1283 -0.0668
 1983W        W 2013   4.545   1.276   1.064  0.2545 -0.4062 -0.2206
 1984W        W 2014   0.441   6.415   6.379 -0.2134  0.0009  0.0605
 1985W        W 2015   5.613   1.710   3.798 -0.1132  0.2536  0.0155
 1986W        W 2016   2.055   3.811   3.584  0.2724 -0.0608 -0.0953
 1987W        W 2017   5.337   4.660   4.964 -0.0943 -0.1680 -0.0290
 1988W        W 2018   0.013   4.792   5.255  0.1649  0.2342  0.2495
 1989W        W 2019   6.046   5.858   1.329  0.0868  0.0206 -0.1216
 1990W        W 2020   2.470   1.637   5.966 -0.2892 -0.0974  0.1383
 1991W        W 2021   5.233   2.815   1.249  0.2085 -0.1883 -0.0312
 1992W        W 2022   5.526   5.760   4.725  0.0567  0.1049 -0.1010
 1993W        W 2023   5.916   1.451   6.423  0.0154  0.0259  0.1517
 1994W        W 2024   4.704   3.095   2.455 -0.0949 -0.1491  0.2173
 1995W        W 2025   0.153   0.472   4.249  0.0767  0.0565  0.2633
 1996W        W 2026   1.640   3.598   6.088 -0.2893  0.2115 -0.1025
 1997W        W 2027   3.140   0.170   1.142 -0.1432  0.0497  0.1480
 1998W        W 2028   1.087   6.249   0.636  0.0311 -0.0269 -0.0380
 1999W        W 2029   1.284   3.865   3.615  0.3841 -0.0599 -0.0598
 2000W        W 2030   6.010   0.193   1.666  0.0212  0.3270  0.1534
 2001W        W 2031   0.033   6.129   2.996  0.3024 -0.0685 -0.0703
 2002W        W 2032   5.645   1.277   2.471  0.0551 -0.0336  0.0659
 2003W        W 2033   5.654   1.272   3.168  0.4558 -0.1360  0.2914
 2004W        W 2034   5.023   3.398   6.195  0.0570 -0.0395  0.0964
 2005W        W 2035   0.778   3.568   0.047 -0.1161  0.0512  0.0152
 2006W        W 2036   4.565   0.693   0.162 -0.1726 -0.0845  0.0077
 2007W        W 2037   5.552   5.055   5.274  0.1632  0.2583  0.6418
 2008W        W 2038   3.773   6.459   2.724 -0.0793  0.2427 -0.0877
 2009W        W 2039   3.284   4.276   3.836  0.2526  0.2274  0.3312
 2010W        W 2040   5.011   0.645   0.456 -0.2600  0.1346 -0.1715
 2011W        W 2041   2.771   5.708   2.714  0.2591  0.2732 -0.2096
 2012W        W 2042   3.500   4.127   4.341  0.2003  0.1878 -0.0249
 2013W        W 2043   3.802   3.709   3.193 -0.1926 -0.1434  0.1001
 2014W        W 2044   1.148   6.266   2.381 -0.1736 -0.1321 -0.2860
 2015W        W 2045   1.457   5.554   2.990  0.6823  0.0944  0.2173
 2016W        W 2046   6.381   3.538   5.915  0.1967 -0.1249 -0.0234
 2017W        W 2047   0.953   1.024   3.332 -0.1596 -0.1712  0.3483
 2018W        W 2048   0.889   1.931   5.731 -0.0866 -0.1948  0.2466
 2019W        W 2049   2.312   1.858   0.045 -0.1363  0.0431  0.1389
 2020W        W 2050   2.572   2.882   5.788 -0.1806 -0.2916  0.0953
 2021W        W 2051   1.597   5.085   4.786 -0.2318  0.0384 -0.0430
 2022W        W 2052   2.404   4.972   1.890 -0.1760 -0.0907 -0.3244
 2023W        W 2053   1.075   0.310   5.102 -0.2036 -0.4206 -0.2256
 2024W        W 2054   5.096   3.533   3.828 -0.1115  0.0643  0.0891
 2025W        W 2055   4.584   1.150   6.347  0.2645 -0.1337  0.0931
 2026W        W 2056   6.280   1.720   1.665  0.3155  0.4495 -0.1529
 2027W        W 2057   6.428   2.023   2.591 -0.0818  0.0386  0.2061
 2028W        W 2058   2.449   1.038   1.959  0.0039  0.2059  0.2354
 2029W        W 2059   5.151   3.821   0.596 -0.2883  0.1523 -0.2152
 2030W        W 2060   0.753   1.608   2.328  0.0781 -0.0790  0.1726
 2031W        W 2061   5.824   4.577   4.201  0.3418 -0.0316 -0.2179
 2032W        W 2062   0.564   4.428   6.211  0.1955 -0.1592 -0.1390
 2033W        W 2063   0.508   1.556   4.035 -0.2491 -0.0920  0.3705
 2034W        W 2064   0.335   5.991   6.124  0.1601  0.0830 -0.2989
 2035W        W 2065   1.927   6.371   1.466 -0.1798 -0.0703 -0.0676
 2036W        W 2066   6.122   1.775   4.165  0.1059 -0.1898 -0.0016
 2037W        W 2067   1.107   5.727   0.544  0.0728 -0.0979  0.0868
 2038W        W 2068   5.717   5.507   1.436 -0.2393 -0.3092 -0.0236
 2039W        W 2069   2.802   5.613   0.553 -0.2236  0.0835 -0.0328
 2040W        W 2070   4.989   1.062   1.491 -0.1130 -0.0861 -0.0712
 2041W        W 2071   2.535   3.786   3.660 -0.0249 -0.2250  0.2049
 2042W        W 2072   2.589   2.996   2.684  0.1734 -0.0379  0.1408
 2043W        W 2073   5.242   0.617   3.119 -0.0833 -0.1123  0.0794
 2044W        W 2074   4.377   1.442   5.273 -0.2980  0.0502  0.1178
 2045W        W 2075   4.195   5.753   0.243 -0.4650 -0.0793 -0.0864
 2046W        W 2076   4.567   2.753   5.703 -0.2274  0.0746  0.2226
 2047W        W 2077   3.912   4.604   3.497  0.0943 -0.3206 -0.0518
 2048W        W 2078   2.517   5.954   0.307 -0.1920  0.0561  0.2300
 2049W        W 2079   1.925   0.177   0.503  0.0298 -0.1737  0.1189
 2050W        W 2080   3.786   1.516   3.621  0.0114 -0.1016  0.4185
 2051W        W 2081   5.867   0.952   0.147 -0.0123  0.0045  0.0865
 2052W        W 2082   0.152   3.729   4.322 -0.3999  0.2003  0.3485
 2053W        W 2083   1.583   1.428   6.199 -0.3224 -0.2637  0.1648
 2054W        W 2084   1.188   3.235   6.324 -0.0323 -0.2510 -0.0158
 2055W        W 2085   3.366   5.229   2.228 -0.2120 -0.0682  0.0459
 2056W        W 2086   4.025   2.824   2.593 -0.0533  0.0029 -0.1667
 2057W        W 2087   1.893   3.583   2.472 -0.1886 -0.0377  0.1167
 2058W        W 2088   5.509   4.884   0.978 -0.0006  0.0471 -0.1810
 2059W        W 2089   0.601   2.983   5.334 -0.0586  0.1460  0.0331
 2060W        W 2090   2.170   2.548   5.703  0.2067 -0.1420  0.2072
 2061W        W 2091   4.131   1.534   3.137  0.1341 -0.2231 -0.0223
 2062W        W 2092   3.256   2.812   5.044  0.0661 -0.0486  0.2112
 2063W        W 2093   5.652   1.381   5.932 -0.1222  0.1079  0.2598
 2064W        W 2094   5.882   1.343   1.886 -0.3214 -0.0805  0.0039
 2065W        W 2095   2.641   2.261   6.442  0.2271  0.1174 -0.1396
 2066W        W 2096   0.433   2.692   3.727  0.1212 -0.2834 -0.0927
 2067W        W 2097   1.252   6.348   6.168 -0.0057 -0.2161  0.1266
 2068W        W 2098   4.271   5.371   5.672 -0.3937  0.1040  0.0397
 2069W        W 2099   2.225   2.401   2.137  0.1035  0.0923  0.0407
 2070W        W 2100   5.204   2.924   0.620  0.0577  0.0437 -0.1922
 2071W        W 2101   5.937   1.275   4.156 -0.0944 -0.4255  0.0844
 2072W        W 2102   6.024   2.064   1.368 -0.0202 -0.1803  0.0114
 2073W        W 2103   1.883   5.760   3.686  0.0344 -0.0427 -0.1148
 2074W        W 2104   0.722   0.746   3.963  0.4376 -0.3275  0.0739
 2075W        W 2105   5.458   2.514   5.593 -0.0803  0.1356  0.0202
 2076W        W 2106   1.417   2.309   2.876  0.1066  0.1943 -0.0367
 2077W        W 2107   0.494   3.415   4.092  0.1500 -0.1005  0.0657
 2078W        W 2108   0.538   4.387   1.736 -0.3457  0.2856  0.1308
 2079W        W 2109   6.168   6.169   5.515  0.0257 -0.0897 -0.0387
 2080W        W 2110   2.650   3.416   1.577  0.0231  0.0648  0.1626
 2081W        W 2111   4.577   5.806   5.833 -0.0233  0.2269  0.2374
 2082W        W 2112   3.413   4.234   5.430  0.2566  0.0738 -0.0108
 2083W        W 2113   4.508   3.521   0.587  0.2540  0.2705 -0.0276
 2084W        W 2114   4.182   2.218   1.071  0.0540  0.0292  0.2443
 2085W        W 2115   3.987   3.418   4.088 -0.1238  0.0841 -0.1428
 2086W        W 2116   5.830   2.326   4.552  0.0371  0.1548  0.1250
 2087W        W 2117   1.983   1.119   2.958 -0.0284 -0.3131 -0.0286
 2088W        W 2118   2.386   3.606   2.505  0.0832 -0.3102 -0.2509
 2089W        W 2119   3.777   0.437   4.625  0.1532 -0.3354  0.0246
 2090W        W 2120   3.179   4.240   1.899 -0.0729 -0.3029  0.0702
 2091W        W 2121   3.196   0.290   5.733  0.0607 -0.1459 -0.3180
 2092W        W 2122   6.035   2.468   0.989  0.0274  0.0596  0.2519
 2093W        W 2123   1.564   2.192   4.615 -0.0290  0.1459 -0.0275
 2094W        W 2124   5.608   0.890   5.918 -0.4585  0.0773  0.2502
 2095W        W 2125   4.801   2.295   3.699 -0.1703 -0.1314  0.2493
 2096W        W 2126   4.751   5.863   5.391  0.2050  0.1229  0.0516
 2097W        W 2127   2.813   5.899   5.445 -0.0070  0.0551 -0.0067
 2098W        W 2128   0.038   2.788   0.086  0.0269 -0.1857  0.0758
 2099W        W 2129   0.351   3.843   3.769  0.1221 -0.0992 -0.0667
 2100W        W 2130   3.761   1.837   4.535 -0.0585 -0.2337  0.2458
 2101W        W 2131   3.811   3.118   3.224  0.0900  0.0973  0.0717
 2102W        W 2132   0.446   1.396   1.988 -0.0647  0.1272 -0.2459
 2103W        W 2133   0.694   5.891   5.201  0.0843 -0.1437 -0.1477
 2104W        W 2134   2.366   0.162   5.260  0.2963 -0.1573  0.1743
 2105W        W 2135   3.706   0.131   1.752  0.1626  0.0296 -0.1424
 2106W        W 2136   1.744   4.795   2.359  0.3418  0.2932 -0.0994
 2107W        W 2137   1.324   2.553   2.435 -0.0315 -0.1023 -0.0500
 2108W        W 2138   3.686   1.015   6.253  0.0075  0.1085 -0.0175
 2109W        W 2139   1.983   6.309   2.747  0.0324  0.1800  0.0446
 2110W        W 2140   4.538   4.857   2.687  0.0216 -0.1792 -0.1898
 2111W        W 2141   4.932   6.172   3.607  0.0243  0.3317  0.2636
 2112W        W 2142   0.520   2.140   1.576  0.0641  0.0550  0.3873
 2113W        W 2143   4.243   3.460   3.385  0.1028 -0.0885  0.3402
 2114W        W 2144   3.277   4.827   0.939 -0.0338  0.2383 -0.0655
 2115W        W 2145   3.789   6.087   1.177  0.2292  0.2419 -0.0666
 2116W        W 2146   6.039   5.089   5.483  0.0294  0.1242  0.0065
 2117W        W 2147   5.045   2.673   4.833  0.2639  0.0065  0.1119
 2118W        W 2148   5.317   2.409   0.645 -0.1289  0.0705  0.3694
 2119W        W 2149   2.038   5.300   5.212 -0.0508 -0.0385 -0.1357
 2120W        W 2150   3.985   3.416   5.742  0.1786  0.2792  0.2120
 2121W        W 2151   6.067   5.584   4.187  0.0544 -0.0469 -0.1495
 2122W        W 2152   0.048   5.129   2.146  0.1700 -0.1055 -0.1237
 2123W        W 2153   2.064   1.942   5.241  0.2370 -0.0131  0.1443
 2124W        W 2154   2.298   5.034   0.531 -0.0291  0.0286  0.1327
 2125W        W 2155   1.095   4.131   0.691 -0.2570 -0.1456  0.1063
 2126W        W 2156   4.536   1.803   2.883  0.2955  0.1996  0.3631
 2127W        W 2157   4.722   5.873   4.269 -0.0441  0.1819 -0.1697
 2128W        W 2158   0.848   3.272   4.840 -0.3077  0.0125  0.0846
 2129W        W 2159   1.818   1.090   0.389  0.0419 -0.1095  0.3741
 2130W        W 2160   0.219   0.663   5.106 -0.1568 -0.1821 -0.2106
 2131W        W 2161   4.479   0.001   1.348 -0.1519 -0.1406 -0.1706
 2132W        W 2162   0.138   0.566   3.723  0.0731 -0.2586 -0.4571
 2133W        W 2163   2.809   0.755   2.698  0.1490 -0.3833 -0.1166
 2134W        W 2164   3.680   1.934   3.014 -0.0148 -0.2025  0.2042
 2135W        W 2165   3.835   2.528   0.990 -0.1139 -0.1556 -0.1121
 2136W        W 2166   5.107   2.044   6.285  0.1306  0.2738 -0.1191
 2137W        W 2167   0.529   4.363   2.526  0.0478  0.0076  0.1262
 2138W        W 2168   0.031   2.150   5.174  0.0321 -0.1448 -0.2827
 2139W        W 2169   1.517   0.279   4.697  0.0893 -0.0437 -0.0529
 2140W        W 2170   0.620   3.918   2.111  0.0702 -0.1068  0.0359
 2141W        W 2171   4.621   4.929   0.085 -0.3200 -0.3204  0.0898
 2142W        W 2172   5.665   5.242   0.551  0.1515  0.1910 -0.0432
 2143W        W 2173   2.486   5.028   5.160 -0.0992  0.0457 -0.1678
 2144W        W 2174   3.546   2.819   2.891  0.2722 -0.0444 -0.4021
 2145W        W 2175   4.382   3.804   0.120 -0.1356 -0.0354 -0.1632
 2146W        W 2176   2.808   3.006   1.889 -0.1480 -0.1835 -0.2318
 2147W        W 2177   5.664   5.446   5.594  0.1692 -0.0253 -0.2964
 2148W        W 2178   2.583   6.160   5.008  0.1331 -0.0627  0.0056
 2149W        W 2179   5.122   1.050   5.940  0.0202 -0.0759  0.1028
 2150W        W 2180   1.430   4.121   5.132  0.0763  0.2717 -0.1299
 2151W        W 2181   1.549   3.896   2.282  0.0438  0.1375  0.0827
 2152W        W 2182   2.036   5.281   3.809  0.1885 -0.3822 -0.2045
 2153W        W 2183   0.860   4.647   3.922  0.0382  0.2814 -0.0036
 2154W        W 2184   3.863   0.262   5.679  0.2957 -0.2260 -0.0465
 2155W        W 2185   6.092   4.450   6.086  0.1116 -0.2024 -0.0894
 2156W        W 2186   1.674   2.812   3.315  0.1247 -0.3428 -0.0587
 2157W        W 2187   3.127   3.594   2.497 -0.0006 -0.0782  0.1820
 2158W        W 2188   3.050   1.529   1.283  0.3197 -0.0258  0.1146
 2159W        W 2189   1.945   5.391   3.328 -0.0595 -0.0201  0.1478
 2160W        W 2190   4.864   5.039   6.050 -0.3218 -0.0099  0.2851
 2161W        W 2191   3.624   3.594   2.161 -0.1348  0.0593  0.1557
 2162W        W 2192   1.867   0.540   6.215 -0.0028  0.2115  0.1157
 2163W        W 2193   5.257   6.368   1.134  0.1502  0.0430  0.3184
 2164W        W 2194   1.768   2.378   1.471  0.0701  0.3412  0.0068
 2165W        W 2195   2.127   4.806   1.426  0.1935 -0.1981  0.1542
 2166W        W 2196   4.150   2.440   2.123 -0.0374 -0.1188 -0.0162
 2167W        W 2197   1.377   4.533   3.746 -0.0459 -0.1772  0.1050
 2168W        W 2198   2.189   2.209   1.707 -0.0761 -0.0252  0.1181
 2169W        W 2199   4.627   6.414   0.864 -0.1123  0.1724 -0.1806
 2170W        W 2200   5.631   3.097   3.298  0.3625 -0.0084 -0.1146
 2171W        W 2201   1.337   0.822   4.509 -0.0500  0.2109 -0.1375
 2172W        W 2202   4.591   4.934   4.159  0.0112 -0.2154 -0.2080
 2173W        W 2203   5.988   0.976   2.697 -0.0345 -0.1446  0.3320
 2174W        W 2204   3.761   4.923   2.261  0.0218  0.0034 -0.0264
 2175W        W 2205   1.204   0.374   4.326  0.2953  0.1350 -0.1706
 2176W        W 2206   3.874   2.917   1.388 -0.1051  0.0116 -0.0279
 2177W        W 2207   4.182   6.303   5.771 -0.2795 -0.0935  0.4097
 2178W        W 2208   5.198   5.049   1.829  0.1062  0.2182 -0.0851
 2179W        W 2209   0.686   4.102   4.169  0.1896 -0.3308 -0.1767
 2180W        W 2210   4.696   4.496   1.068  0.2759  0.1160  0.0471
 2181W        W 2211   3.831   6.364   4.499 -0.1047  0.0645 -0.1084
 2182W        W 2212   4.563   4.026   1.050  0.0242  0.1584 -0.0547
 2183W        W 2213   6.351   0.287   0.498 -0.2351 -0.1062  0.2242
 2184W        W 2214   2.765   3.359   5.967 -0.0330  0.3346  0.0011
 2185W        W 2215   5.093   4.176   5.816 -0.0978 -0.0240 -0.2086
 2186W        W 2216   3.499   0.104   3.608  0.1084  0.2742 -0.1726
 2187W        W 2217   0.308   0.793   4.572 -0.1040  0.0497 -0.1697
 2188W        W 2218   4.519   2.643   2.946 -0.1675 -0.4111 -0.1237
 2189W        W 2219   0.922   0.866   1.468  0.1902  0.0979  0.3255
 2190W        W 2220   5.627   0.416   4.103  0.0321 -0.0911 -0.1429
 2191W        W 2221   0.618   0.290   4.242 -0.2162  0.0927  0.0200
 2192W        W 2222   2.562   2.710   0.424 -0.0302 -0.1301 -0.1203
 2193W        W 2223   1.790   1.905   1.028 -0.0951 -0.2316  0.1765
 2194W        W 2224   2.241   3.169   5.963  0.0252 -0.2635 -0.1394
 2195W        W 2225   1.348   1.614   0.709 -0.0275 -0.2393 -0.2186
 2196W        W 2226   3.088   1.541   0.316  0.0733  0.1136  0.0689
 2197W        W 2227   4.425   2.665   1.847  0.1119  0.0647  0.0517
 2198W        W 2228   5.513   3.895   5.630  0.0836 -0.1550 -0.0040
 2199W        W 2229   0.573   3.690   4.605  0.0116  0.0175  0.1549
 2200W        W 2230   4.673   0.678   3.848  0.1680  0.1506  0.1948
 2201W        W 2231   3.627   3.650   4.367 -0.4013 -0.1039  0.0419
 2202W        W 2232   3.340   0.478   4.452 -0.1769 -0.5866  0.1134
 2203W        W 2233   2.091   6.212   3.902 -0.0556  0.2129  0.0548
 2204W        W 2234   3.908   4.668   1.862 -0.1649 -0.2219  0.0406
 2205W        W 2235   0.303   2.282   2.903  0.2270 -0.1196  0.2878
 2206W        W 2236   2.890   2.431   5.123  0.0252 -0.0068 -0.0447
 2207W        W 2237   4.280   1.046   3.024  0.1111 -0.2876  0.1173
 2208W        W 2238   1.408   2.541   3.717  0.1253  0.0783  0.0628
 2209W        W 2239   6.335   5.580   6.104  0.1247 -0.2822  0.1925
 2210W        W 2240   5.472   6.242   0.301 -0.1936  0.1346  0.0076
 2211W        W 2241   2.063   0.796   0.693 -0.1906 -0.2493  0.0426
 2212W        W 2242   4.158   5.760   6.093 -0.0812  0.0755 -0.1030
 2213W        W 2243   3.189   3.225   3.516  0.1550  0.0555 -0.0722
 2214W        W 2244   0.433   1.292   3.160  0.2780  0.3122 -0.2263
 2215W        W 2245   2.427   5.121   2.791 -0.1946  0.3185 -0.0313
 2216W        W 2246   1.420   4.521   0.664  0.0180  0.0628 -0.2832
 2217W        W 2247   1.637   4.318   1.882 -0.0676 -0.0943 -0.0752
 2218W        W 2248   0.801   0.686   1.971 -0.0560  0.1223 -0.2747
 2219W        W 2249   5.241   0.614   3.700 -0.2359 -0.0004 -0.1730
 2220W        W 2250   2.859   0.274   4.448 -0.1457  0.1119 -0.0509
 2221W        W 2251   5.558   5.903   1.092 -0.3872  0.2461 -0.0307
 2222W        W 2252   0.926   2.402   1.606 -0.1902 -0.1124 -0.0266
 2223W        W 2253   0.491   4.775   4.416 -0.0338 -0.0846 -0.1507
 2224W        W 2254   0.196   0.780   0.640 -0.0911  0.5361 -0.0103
 2225W        W 2255   1.980   0.889   4.618 -0.0672 -0.0283  0.3713
 2226W        W 2256   3.484   4.711   3.700  0.1845 -0.0470 -0.0044
 2227W        W 2257   6.395   4.219   6.388 -0.0749  0.3592  0.3319
 2228W        W 2258   3.773   2.299   5.349  0.0966 -0.2316 -0.3148
 2229W        W 2259   0.772   4.795   2.429 -0.0260 -0.1195 -0.0482
 2230NA      NA 2260   3.396   4.062   3.147  0.0990  0.0727  0.3418
 2231NA      NA 2261   5.004   4.351   1.383 -0.4493  0.0628  0.1163
 2232NA      NA 2262   1.421   5.801   5.524  0.4032 -0.3562  0.0965
 2233NA      NA 2263   0.385   3.528   0.713  0.2482 -0.2691 -0.1094
 2234NA      NA 2264   0.135   4.507   2.525  0.1137  0.1524  0.3556
 2235NA      NA 2265   5.381   3.400   4.966 -0.5580 -0.0056  0.1406
 2236NA      NA 2266   3.131   0.749   5.019 -0.4586  0.2857  0.2348
 2237NA      NA 2267   5.564   2.662   4.532 -0.2642  0.1373  0.2757
 2238CL      CL 2268   5.278   4.549   1.128 -0.1035  0.2543 -0.3669
 2239CL      CL 2269   6.383   4.574   2.261 -0.7737 -0.2775  0.1741
 2240CL      CL 2270   4.784   1.337   5.985  0.2741 -0.2717 -0.0408
 2241CL      CL 2271   0.348   0.572   1.940  0.2917 -0.2632 -0.2488
 2242CL      CL 2272   0.054   3.471   1.155 -0.1750  0.1117  0.0704
 2243CL      CL 2273   3.099   1.432   6.331 -0.1813 -0.0091 -0.1514
 2244CL      CL 2274   5.899   5.200   1.693 -0.1144  0.5479 -0.2774
 2245CL      CL 2275   5.494   5.825   2.462 -0.1784  0.3361 -0.2501
 2246CL      CL 2276   6.449   5.791   2.527  0.0871  0.4685  0.2288
 2247CL      CL 2277   3.190   0.873   0.988  0.2823  0.2964  0.0300
 2248CL      CL 2278   3.891   3.882   2.021 -0.1650 -0.4242  0.4629
 2249CL      CL 2279   3.034   4.374   2.490 -0.2363  0.7447  0.1866
 2250CL      CL 2280   5.915   6.032   0.895  0.5328  0.2879  0.4401
 2251CL      CL 2281   1.729   4.455   4.303  0.0540 -0.0247  0.1476
 2252CL      CL 2282   2.001   5.557   4.133  0.0952 -0.2192 -0.2014
 2253CL      CL 2283   5.579   3.612   0.490 -0.1863  0.0525 -0.1299
 2254CL      CL 2284   0.599   1.807   4.733  0.2950  0.5329  0.0044
 2255CL      CL 2285   5.724   3.248   5.113 -0.1759  0.2170 -0.3087
 2256CL      CL 2286   1.290   2.228   5.447  0.4345 -0.0005  0.0322
 2257CL      CL 2287   5.298   1.543   3.269  0.1476 -0.0458  0.3529
 2258CL      CL 2288   3.523   6.133   2.786 -0.1256  0.0039 -0.4631
 2259CL      CL 2289   3.907   0.089   6.110  0.0314  0.4193 -0.0314
 2260CL      CL 2290   0.887   3.701   4.878 -0.5413 -0.2526 -0.2068
   6.46061   6.46061   6.46061
