; /home/vinicius/python_venvs/polyply-env/bin/polyply gen_params -lib brushes_martini -o pmetac.itp -name PCP -seq PCP:15

; Please cite the following papers:

[ moleculetype ]
PCP 1

[ atoms ]
 1 SCM  1 PCP CM  1 0.0 54.0
 2 N4M  1 PCP OM  2 0.0 72.0
 3 SQ2  1 PCP NC  3 1.0 72.0
 4 SCM  2 PCP CM  4 0.0 54.0
 5 N4M  2 PCP OM  5 0.0 72.0
 6 SQ2  2 PCP NC  6 1.0 72.0
 7 SCM  3 PCP CM  7 0.0 54.0
 8 N4M  3 PCP OM  8 0.0 72.0
 9 SQ2  3 PCP NC  9 1.0 72.0
10 SCM  4 PCP CM 10 0.0 54.0
11 N4M  4 PCP OM 11 0.0 72.0
12 SQ2  4 PCP NC 12 1.0 72.0
13 SCM  5 PCP CM 13 0.0 54.0
14 N4M  5 PCP OM 14 0.0 72.0
15 SQ2  5 PCP NC 15 1.0 72.0
16 SCM  6 PCP CM 16 0.0 54.0
17 N4M  6 PCP OM 17 0.0 72.0
18 SQ2  6 PCP NC 18 1.0 72.0
19 SCM  7 PCP CM 19 0.0 54.0
20 N4M  7 PCP OM 20 0.0 72.0
21 SQ2  7 PCP NC 21 1.0 72.0
22 SCM  8 PCP CM 22 0.0 54.0
23 N4M  8 PCP OM 23 0.0 72.0
24 SQ2  8 PCP NC 24 1.0 72.0
25 SCM  9 PCP CM 25 0.0 54.0
26 N4M  9 PCP OM 26 0.0 72.0
27 SQ2  9 PCP NC 27 1.0 72.0
28 SCM 10 PCP CM 28 0.0 54.0
29 N4M 10 PCP OM 29 0.0 72.0
30 SQ2 10 PCP NC 30 1.0 72.0
31 SCM 11 PCP CM 31 0.0 54.0
32 N4M 11 PCP OM 32 0.0 72.0
33 SQ2 11 PCP NC 33 1.0 72.0
34 SCM 12 PCP CM 34 0.0 54.0
35 N4M 12 PCP OM 35 0.0 72.0
36 SQ2 12 PCP NC 36 1.0 72.0
37 SCM 13 PCP CM 37 0.0 54.0
38 N4M 13 PCP OM 38 0.0 72.0
39 SQ2 13 PCP NC 39 1.0 72.0
40 SCM 14 PCP CM 40 0.0 54.0
41 N4M 14 PCP OM 41 0.0 72.0
42 SQ2 14 PCP NC 42 1.0 72.0
43 SCM 15 PCP CM 43 0.0 54.0
44 N4M 15 PCP OM 44 0.0 72.0
45 SQ2 15 PCP NC 45 1.0 72.0

[ bonds ]
 1  2 1 0.282 40000
 2  3 1 0.393 16400
 4  5 1 0.282 40000
 5  6 1 0.393 16400
 7  8 1 0.282 40000
 8  9 1 0.393 16400
10 11 1 0.282 40000
11 12 1 0.393 16400
13 14 1 0.282 40000
14 15 1 0.393 16400
16 17 1 0.282 40000
17 18 1 0.393 16400
19 20 1 0.282 40000
20 21 1 0.393 16400
22 23 1 0.282 40000
23 24 1 0.393 16400
25 26 1 0.282 40000
26 27 1 0.393 16400
28 29 1 0.282 40000
29 30 1 0.393 16400
31 32 1 0.282 40000
32 33 1 0.393 16400
34 35 1 0.282 40000
35 36 1 0.393 16400
37 38 1 0.282 40000
38 39 1 0.393 16400
40 41 1 0.282 40000
41 42 1 0.393 16400
43 44 1 0.282 40000
44 45 1 0.393 16400
 1  4 1 0.281 15000
 4  7 1 0.281 15000
 7 10 1 0.281 15000
10 13 1 0.281 15000
13 16 1 0.281 15000
16 19 1 0.281 15000
19 22 1 0.281 15000
22 25 1 0.281 15000
25 28 1 0.281 15000
28 31 1 0.281 15000
31 34 1 0.281 15000
34 37 1 0.281 15000
37 40 1 0.281 15000
40 43 1 0.281 15000

[ angles ]
 1  2  3 2 125 112
 4  5  6 2 125 112
 7  8  9 2 125 112
10 11 12 2 125 112
13 14 15 2 125 112
16 17 18 2 125 112
19 20 21 2 125 112
22 23 24 2 125 112
25 26 27 2 125 112
28 29 30 2 125 112
31 32 33 2 125 112
34 35 36 2 125 112
37 38 39 2 125 112
40 41 42 2 125 112
43 44 45 2 125 112
 1  4  7 10 150.0 40.0
 4  7  8 10 90.0 100.0
 5  4  7 1 105.0 90.0
 4  7 10 10 150.0 40.0
 7 10 11 10 90.0 100.0
 8  7 10 1 105.0 90.0
 7 10 13 10 150.0 40.0
10 13 14 10 90.0 100.0
11 10 13 1 105.0 90.0
10 13 16 10 150.0 40.0
13 16 17 10 90.0 100.0
14 13 16 1 105.0 90.0
13 16 19 10 150.0 40.0
16 19 20 10 90.0 100.0
17 16 19 1 105.0 90.0
16 19 22 10 150.0 40.0
19 22 23 10 90.0 100.0
20 19 22 1 105.0 90.0
19 22 25 10 150.0 40.0
22 25 26 10 90.0 100.0
23 22 25 1 105.0 90.0
22 25 28 10 150.0 40.0
25 28 29 10 90.0 100.0
26 25 28 1 105.0 90.0
25 28 31 10 150.0 40.0
28 31 32 10 90.0 100.0
29 28 31 1 105.0 90.0
28 31 34 10 150.0 40.0
31 34 35 10 90.0 100.0
32 31 34 1 105.0 90.0
31 34 37 10 150.0 40.0
34 37 38 10 90.0 100.0
35 34 37 1 105.0 90.0
34 37 40 10 150.0 40.0
37 40 41 10 90.0 100.0
38 37 40 1 105.0 90.0
37 40 43 10 150.0 40.0
40 43 44 10 90.0 100.0
41 40 43 1 105.0 90.0

