#include "../martini3.ff/martini_3_mod-RW.itp"
#include "pmetac.itp"
#include "../martini3.ff/martini_v3.0.0_solvents_v1.itp"
#include "../martini3.ff/martini_v3.0.0_ions_v1.itp"

[ system ]
; name
INSANE! Membrane UpperLeaflet>POPC=1 LowerLeaflet>POPC=1 in water

[ molecules ]
; name  number
PCP               1
W 	       2214
NA		  8
CL	         23