INSANE! Membrane UpperLeaflet>POPC=1 LowerLeaflet>POPC=1 in water
 2045
    1HEMA    CM    1   3.497   4.002   4.483 -0.2941  0.1407 -0.2768
    1HEMA    OM    2   3.544   4.229   4.336 -0.0142  0.2370  0.0184
    1HEMA    OH    3   3.582   4.594   4.320 -0.5900 -0.0312  0.6158
    2HEMA    CM    4   3.543   3.987   4.754 -0.1745  0.0114  0.0938
    2HEMA    OM    5   3.651   3.718   4.800  0.0719 -0.1578 -0.1270
    2HEMA    OH    6   3.991   3.591   4.805  0.2800 -0.1440  0.0302
    3HEMA    CM    7   3.427   4.067   5.014  0.1139 -0.2224 -0.0955
    3HEMA    OM    8   3.635   4.271   5.018 -0.1771  0.0630  0.0369
    3HEMA    OH    9   3.906   4.365   4.888 -0.1287 -0.1130  0.3698
    4HEMA    CM   10   3.281   4.058   5.248  0.2274  0.2152  0.3442
    4HEMA    OM   11   3.039   4.086   5.125  0.2842  0.0664 -0.1225
    4HEMA    OH   12   2.667   4.039   5.128 -0.0204 -0.2318  0.4918
    5HEMA    CM   13   3.223   3.964   5.508 -0.1891 -0.0156  0.1325
    5HEMA    OM   14   3.189   3.692   5.422 -0.0778  0.1769  0.0944
    5HEMA    OH   15   3.356   3.352   5.398  0.0818 -0.3822 -0.1597
    6HEMA    CM   16   3.291   3.920   5.764  0.1957 -0.0120 -0.0458
    6HEMA    OM   17   3.079   4.037   5.901  0.0135 -0.1582  0.1292
    6HEMA    OH   18   2.957   3.904   6.192  0.4410  0.0188  0.2510
    7HEMA    CM   19   3.431   3.702   5.916  0.0815  0.1480  0.0474
    7HEMA    OM   20   3.272   3.480   5.826 -0.0547 -0.2073 -0.2498
    7HEMA    OH   21   2.981   3.381   5.631  0.3322 -0.0420  0.1282
    8HEMA    CM   22   3.580   3.638   6.133  0.4301  0.1605 -0.0899
    8HEMA    OM   23   3.765   3.855   6.141  0.1326  0.2886  0.1250
    8HEMA    OH   24   4.092   3.853   6.061 -0.1406  0.0404 -0.0004
    9HEMA    CM   25   3.778   3.416   6.191 -0.2585  0.0115 -0.1267
    9HEMA    OM   26   3.667   3.313   6.435 -0.1106 -0.0748 -0.1192
    9HEMA    OH   27   3.433   3.451   6.715  0.2641  0.0759  0.3743
   10HEMA    CM   28   3.993   3.251   6.089 -0.0503  0.1644  0.0699
   10HEMA    OM   29   4.012   3.423   5.842 -0.2522 -0.0576 -0.2893
   10HEMA    OH   30   3.875   3.739   5.717 -0.0904 -0.1974 -0.0451
   11HEMA    CM   31   4.148   3.018   5.995  0.0691 -0.5021 -0.1261
   11HEMA    OM   32   4.346   3.071   6.166 -0.2728 -0.1619  0.1078
   11HEMA    OH   33   4.583   3.344   6.326  0.4334 -0.0330 -0.1344
   12HEMA    CM   34   4.218   2.742   5.923 -0.0606  0.3389 -0.2002
   12HEMA    OM   35   4.408   2.758   5.721 -0.0051 -0.0438 -0.1604
   12HEMA    OH   36   4.572   2.966   5.489 -0.2580  0.1745 -0.3759
   13HEMA    CM   37   4.055   2.484   5.897 -0.3726  0.2833  0.0365
   13HEMA    OM   38   4.162   2.307   6.096 -0.0401 -0.0954 -0.0029
   13HEMA    OH   39   4.108   1.979   6.205 -0.0075  0.0265 -0.0031
   14HEMA    CM   40   3.802   2.387   5.812 -0.0051  0.1106 -0.2120
   14HEMA    OM   41   3.703   2.240   6.058 -0.1567  0.0995 -0.0382
   14HEMA    OH   42   3.522   1.957   6.109  0.1058 -0.1830 -0.2264
   15HEMA    CM   43   3.570   2.331   5.636  0.3137 -0.2032  0.0139
   15HEMA    OM   44   3.738   2.155   5.469 -0.5010 -0.5029 -0.1258
   15HEMA    OH   45   3.688   1.812   5.400  0.0967 -0.0463  0.6667
   16ETO    ETO   46   2.222   2.446   2.185  0.2247 -0.0245 -0.2384
   17ETO    ETO   47   0.285   1.214   3.732  0.3761  0.2349  0.1306
   18ETO    ETO   48   1.757   3.741   0.086  0.2144 -0.2949 -0.2177
   19ETO    ETO   49   2.125   4.805   0.855 -0.2647  0.1963  0.1144
   20ETO    ETO   50   4.102   0.807   4.134  0.2473 -0.0839 -0.0280
   21ETO    ETO   51   3.166   1.034   0.450  0.1135  0.1974 -0.1022
   22ETO    ETO   52   4.156   1.975   2.308 -0.2928 -0.0449 -0.2062
   23ETO    ETO   53   5.695   0.859   5.321  0.3124 -0.2592  0.2186
   24ETO    ETO   54   5.188   0.523   2.700 -0.1902  0.1188  0.3185
   25ETO    ETO   55   1.689   5.573   3.110  0.0307  0.2457  0.2498
   26ETO    ETO   56   5.406   4.934   5.454 -0.1167 -0.3851  0.1647
   27ETO    ETO   57   5.457   4.941   2.062  0.1870  0.2359  0.0488
   28ETO    ETO   58   2.817   4.751   0.751 -0.2941  0.2332 -0.1263
   29ETO    ETO   59   2.536   3.770   2.053 -0.1300 -0.0776 -0.4465
   30ETO    ETO   60   3.180   3.528   0.565 -0.0200  0.0563 -0.0649
   31ETO    ETO   61   0.464   2.747   0.849  0.2238  0.0033 -0.0260
   32ETO    ETO   62   1.639   5.310   3.864  0.2518 -0.1358  0.2186
   33ETO    ETO   63   2.708   5.257   4.061 -0.1995  0.3190 -0.0153
   34ETO    ETO   64   5.237   0.490   5.322 -0.0503  0.0405  0.2343
   35ETO    ETO   65   3.103   2.159   1.237  0.0864  0.1226 -0.2216
   36ETO    ETO   66   4.610   0.389   5.360  0.3654  0.0705  0.0971
   37ETO    ETO   67   2.646   3.977   4.254  0.0168  0.2627 -0.2244
   38ETO    ETO   68   4.563   4.964   0.593 -0.1272 -0.4602 -0.0379
   39ETO    ETO   69   3.655   2.280   1.531 -0.0838 -0.5767 -0.0946
   40ETO    ETO   70   3.451   0.491   3.153 -0.0194  0.2279  0.3138
   41ETO    ETO   71   1.962   3.493   3.795 -0.0781  0.4103 -0.1591
   42ETO    ETO   72   2.176   4.999   3.385  0.2743 -0.0945 -0.4245
   43ETO    ETO   73   3.173   0.202   2.854 -0.2655  0.1836 -0.1997
   44ETO    ETO   74   5.591   2.147   4.856  0.1435  0.0975  0.1574
   45ETO    ETO   75   5.626   5.688   3.372  0.1483 -0.2596  0.1451
   46ETO    ETO   76   0.044   0.068   4.868 -0.1551  0.1341 -0.3566
   47ETO    ETO   77   0.930   3.301   5.658 -0.2486 -0.6263  0.0017
   48ETO    ETO   78   0.551   3.571   0.665 -0.0484 -0.1469  0.0581
   49ETO    ETO   79   4.545   0.855   4.070 -0.2665  0.0953  0.1208
   50ETO    ETO   80   0.254   2.482   4.060  0.1329 -0.1409 -0.1348
   51ETO    ETO   81   4.023   3.606   0.677  0.1997  0.0031 -0.0656
   52ETO    ETO   82   2.760   1.349   4.126  0.4974 -0.0506 -0.1683
   53ETO    ETO   83   1.378   2.677   1.704  0.0415  0.1318 -0.1818
   54ETO    ETO   84   1.134   5.174   2.529 -0.1281 -0.2570 -0.0532
   55ETO    ETO   85   0.813   1.520   0.776  0.0794 -0.1364  0.1960
   56ETO    ETO   86   3.813   2.451   4.223 -0.0059 -0.1235 -0.2237
   57ETO    ETO   87   4.325   1.514   2.371  0.0844  0.1574 -0.1235
   58ETO    ETO   88   3.702   3.224   4.386  0.1853  0.2029 -0.1651
   59ETO    ETO   89   4.434   2.817   3.908  0.0484 -0.0190  0.4139
   60ETO    ETO   90   1.482   0.190   4.643  0.3366  0.3482  0.2747
   61ETO    ETO   91   4.338   0.186   4.520  0.3146  0.0428  0.0905
   62ETO    ETO   92   0.932   1.975   2.269 -0.0867  0.1267 -0.3408
   63ETO    ETO   93   5.528   2.017   0.420 -0.1306  0.0970 -0.1396
   64ETO    ETO   94   0.155   2.926   4.602 -0.2123  0.1078  0.4784
   65ETO    ETO   95   2.107   0.433   4.907  0.1763 -0.1737  0.0535
   66ETO    ETO   96   4.704   3.269   1.042 -0.3120 -0.0202  0.0761
   67ETO    ETO   97   4.853   5.596   3.142  0.1429 -0.0894  0.0439
   68ETO    ETO   98   1.536   0.688   5.244  0.3207 -0.3373 -0.0929
   69ETO    ETO   99   4.523   5.018   1.115 -0.0782  0.1152  0.0807
   70ETO    ETO  100   2.381   5.373   5.536 -0.4567  0.2575  0.0154
   71ETO    ETO  101   2.517   2.655   5.153 -0.1948  0.1414 -0.4831
   72ETO    ETO  102   0.927   3.486   4.392  0.4835  0.0366  0.2371
   73ETO    ETO  103   3.274   1.736   4.342 -0.3244 -0.0974  0.3661
   74ETO    ETO  104   3.059   5.002   1.958 -0.0736 -0.2988  0.4197
   75ETO    ETO  105   5.731   2.905   1.939  0.1846 -0.1973 -0.1220
   76ETO    ETO  106   1.056   3.561   1.897  0.3832 -0.0646 -0.1155
   77ETO    ETO  107   3.851   3.495   2.154  0.1077  0.0758 -0.0175
   78ETO    ETO  108   3.227   1.591   1.577 -0.0799  0.1095 -0.1214
   79ETO    ETO  109   5.030   4.061   3.384 -0.4662  0.2401 -0.0708
   80ETO    ETO  110   3.911   4.556   5.535  0.0740  0.0303 -0.2592
   81ETO    ETO  111   3.798   4.691   4.028  0.0063 -0.5293 -0.2582
   82ETO    ETO  112   2.245   2.907   4.528  0.3052 -0.4213 -0.0027
   83ETO    ETO  113   2.764   3.460   3.358  0.2591 -0.2970 -0.2789
   84ETO    ETO  114   4.543   0.985   0.293  0.1814  0.3205  0.3251
   85ETO    ETO  115   0.307   1.702   0.191 -0.1328  0.0923 -0.1863
   86ETO    ETO  116   0.726   5.665   0.000 -0.1913 -0.0933 -0.0086
   87ETO    ETO  117   5.373   2.910   3.156  0.1325  0.1330  0.1385
   88ETO    ETO  118   3.458   1.819   2.219 -0.0100  0.0112  0.0089
   89ETO    ETO  119   0.193   1.324   2.262  0.1093  0.0152  0.0595
   90ETO    ETO  120   0.383   2.706   0.160  0.0109 -0.1458  0.0838
   91ETO    ETO  121   1.123   5.047   1.470  0.2007  0.0295 -0.0656
   92ETO    ETO  122   2.514   5.264   1.786 -0.0126  0.4264  0.1742
   93ETO    ETO  123   1.899   1.924   1.519 -0.3345 -0.5177 -0.2198
   94ETO    ETO  124   5.552   4.839   2.892  0.0818  0.1048 -0.2096
   95ETO    ETO  125   0.755   5.312   3.337 -0.0558  0.0706 -0.0571
   96ETO    ETO  126   2.921   2.085   2.717  0.3978 -0.1216  0.0965
   97ETO    ETO  127   5.593   3.401   0.294  0.1802 -0.1596  0.3301
   98ETO    ETO  128   5.129   4.467   3.060  0.1107  0.0074  0.0659
   99ETO    ETO  129   3.155   4.610   3.184  0.0739  0.2563  0.2959
  100ETO    ETO  130   2.942   2.325   4.150 -0.0266 -0.2719  0.1066
  101ETO    ETO  131   0.645   1.610   3.678  0.0578 -0.0761 -0.0977
  102ETO    ETO  132   5.130   3.332   2.533 -0.0108 -0.1891 -0.0645
  103ETO    ETO  133   0.531   3.902   2.196 -0.1022 -0.4962  0.0327
  104ETO    ETO  134   3.738   2.205   2.801 -0.0642  0.0001  0.2104
  105ETO    ETO  135   1.310   5.410   4.830  0.2197 -0.2233 -0.1858
  106ETO    ETO  136   5.180   4.838   2.647 -0.1772 -0.0826 -0.0736
  107ETO    ETO  137   5.657   2.832   3.643 -0.0480 -0.1451  0.0918
  108ETO    ETO  138   4.350   1.740   0.258 -0.4343  0.0560  0.0953
  109ETO    ETO  139   4.774   2.501   2.702 -0.1413  0.4048 -0.1297
  110ETO    ETO  140   0.075   3.340   5.229 -0.1240  0.1591  0.0331
  111ETO    ETO  141   0.616   3.111   2.969  0.0361 -0.3188 -0.0724
  112ETO    ETO  142   1.396   0.043   5.048 -0.2215  0.0022  0.1083
  113ETO    ETO  143   3.771   4.218   2.232  0.2198 -0.2642  0.0850
  114ETO    ETO  144   2.486   1.707   2.853  0.0352 -0.1433  0.2176
  115ETO    ETO  145   5.382   4.008   3.664 -0.0624  0.3716 -0.0356
  116ETO    ETO  146   2.254   2.239   4.062 -0.1870  0.1471  0.0662
  117ETO    ETO  147   4.481   1.224   1.955  0.1672 -0.1000 -0.0938
  118ETO    ETO  148   3.013   4.203   3.443  0.2734 -0.2348 -0.0371
  119ETO    ETO  149   1.828   2.411   2.679 -0.0448 -0.0903 -0.1314
  120ETO    ETO  150   4.015   0.714   2.629 -0.3196  0.2255  0.1734
  121ETO    ETO  151   3.989   0.346   0.849 -0.4704  0.3395 -0.1716
  122ETO    ETO  152   2.847   2.088   1.675 -0.2421 -0.1553 -0.1905
  123ETO    ETO  153   4.243   2.121   5.654  0.1952 -0.0464  0.2925
  124ETO    ETO  154   1.572   1.662   3.588  0.0062  0.0427  0.1978
  125ETO    ETO  155   5.225   3.891   4.834 -0.0826  0.0822  0.2017
  126ETO    ETO  156   0.121   1.753   4.259 -0.3492 -0.0194  0.1666
  127ETO    ETO  157   3.802   3.665   4.372 -0.2329  0.0632 -0.2347
  128ETO    ETO  158   5.311   4.784   0.678  0.0637 -0.4098 -0.2523
  129ETO    ETO  159   1.099   2.466   1.190  0.4491 -0.1945  0.1574
  130ETO    ETO  160   4.179   4.724   1.995 -0.1706  0.1960  0.1369
  131ETO    ETO  161   2.526   1.919   1.273 -0.3751  0.1679  0.1220
  132ETO    ETO  162   0.196   5.377   5.269  0.0765  0.0245  0.0902
  133ETO    ETO  163   3.995   2.598   5.480 -0.0805 -0.2331  0.0381
  134ETO    ETO  164   5.183   1.436   4.927 -0.2562  0.0312  0.1662
  135ETO    ETO  165   3.630   3.196   3.467 -0.0722  0.4053  0.4196
  136ETO    ETO  166   5.307   1.252   4.561  0.0781  0.0637  0.1252
  137ETO    ETO  167   3.703   0.264   5.525  0.4043 -0.1009  0.0985
  138ETO    ETO  168   0.403   5.477   0.812 -0.1006 -0.2726  0.1367
  139ETO    ETO  169   5.323   3.869   1.312  0.1209 -0.2248 -0.0067
  140ETO    ETO  170   2.622   3.215   2.499  0.2214  0.0423 -0.1963
  141ETO    ETO  171   3.439   4.291   0.143  0.0772  0.2120  0.1398
  142ETO    ETO  172   3.370   4.634   1.043  0.4677  0.1738 -0.0676
  143ETO    ETO  173   1.257   4.447   1.188  0.3250  0.4261  0.0047
  144ETO    ETO  174   2.662   1.156   0.204  0.1675  0.2532  0.1126
  145ETO    ETO  175   3.600   1.217   1.220 -0.4305  0.0974 -0.2019
  146ETO    ETO  176   2.060   5.187   3.952 -0.0185  0.3238 -0.0529
  147ETO    ETO  177   5.401   4.560   2.368  0.0501 -0.2482  0.0243
  148ETO    ETO  178   4.894   3.760   2.533 -0.1510 -0.1681  0.1941
  149ETO    ETO  179   4.950   4.166   4.688 -0.1479  0.1014 -0.0662
  150ETO    ETO  180   5.494   1.661   5.048  0.0820 -0.1696 -0.3612
  151ETO    ETO  181   0.944   4.338   4.393  0.1470 -0.0411  0.1321
  152ETO    ETO  182   2.849   0.762   5.300 -0.2494  0.5741 -0.1925
  153ETO    ETO  183   3.429   2.520   5.139 -0.0162  0.1216 -0.0831
  154ETO    ETO  184   5.640   5.667   2.198 -0.0272  0.0791  0.1642
  155ETO    ETO  185   3.762   5.696   0.807 -0.0281  0.3492 -0.0973
  156ETO    ETO  186   2.540   1.375   1.071 -0.2373 -0.0466 -0.4640
  157ETO    ETO  187   4.662   0.571   4.557  0.1102 -0.1052 -0.2507
  158ETO    ETO  188   0.921   0.884   1.524  0.1326  0.5380 -0.1213
  159ETO    ETO  189   5.132   3.915   5.696  0.3288 -0.3798 -0.1846
  160ETO    ETO  190   0.432   5.483   1.739  0.3486 -0.3687  0.2488
  161ETO    ETO  191   2.700   4.752   1.390  0.1163 -0.4978 -0.0226
  162ETO    ETO  192   2.221   2.297   1.189  0.1569 -0.0328  0.0144
  163ETO    ETO  193   4.799   1.490   0.330 -0.0108  0.0796 -0.0041
  164ETO    ETO  194   4.695   2.119   5.444 -0.2574  0.3570 -0.0161
  165ETO    ETO  195   4.036   2.359   5.137 -0.0486  0.3067  0.0973
  166ETO    ETO  196   5.275   1.114   1.088 -0.2815 -0.2578  0.1822
  167ETO    ETO  197   2.942   0.540   4.339 -0.1731  0.1770 -0.1110
  168ETO    ETO  198   4.185   5.004   5.593 -0.4613  0.2657  0.0806
  169ETO    ETO  199   1.082   2.807   3.504  0.1794 -0.2795  0.0658
  170ETO    ETO  200   1.139   1.089   4.028 -0.0779  0.3181  0.1317
  171ETO    ETO  201   1.552   2.326   4.544  0.1555 -0.2147  0.0164
  172ETO    ETO  202   4.083   3.016   3.659  0.0714  0.0288  0.2745
  173ETO    ETO  203   3.407   0.262   5.112  0.1687  0.0593  0.0437
  174ETO    ETO  204   0.852   3.378   3.839  0.0585 -0.2815 -0.0315
  175ETO    ETO  205   1.487   0.671   0.775  0.0745  0.2916 -0.2431
  176ETO    ETO  206   4.662   3.339   2.417  0.2525  0.0680  0.4021
  177ETO    ETO  207   0.760   0.578   1.047  0.3077 -0.0258  0.0797
  178ETO    ETO  208   4.908   2.499   0.578 -0.1171 -0.0693 -0.2288
  179ETO    ETO  209   4.574   3.968   1.722  0.0623 -0.0228 -0.1695
  180ETO    ETO  210   0.969   2.392   0.778 -0.3886  0.0393 -0.2364
  181ETO    ETO  211   5.514   3.348   1.201  0.0073 -0.2292 -0.0365
  182ETO    ETO  212   1.685   3.453   4.113  0.0490  0.0764  0.3204
  183ETO    ETO  213   3.809   0.699   2.995 -0.3223 -0.0496  0.1314
  184ETO    ETO  214   2.631   3.279   5.672 -0.0537  0.0290 -0.2610
  185ETO    ETO  215   3.698   0.059   3.050 -0.1172  0.2265 -0.0412
  186ETO    ETO  216   5.075   2.094   1.528 -0.4153 -0.1766 -0.0751
  187ETO    ETO  217   0.312   0.111   3.623 -0.4282  0.1145 -0.1596
  188ETO    ETO  218   0.013   2.381   3.461  0.1239 -0.1263 -0.0054
  189ETO    ETO  219   3.065   3.717   1.788  0.1445 -0.0256  0.0084
  190ETO    ETO  220   4.809   0.178   3.543  0.0578 -0.0292  0.3055
  191ETO    ETO  221   1.927   3.714   4.438  0.0868 -0.1448 -0.0410
  192ETO    ETO  222   0.967   3.761   5.319  0.0628 -0.1017  0.4847
  193ETO    ETO  223   4.868   1.340   1.101  0.0201 -0.3008  0.1080
  194ETO    ETO  224   1.949   3.606   2.703  0.2207 -0.3311 -0.0414
  195ETO    ETO  225   1.571   2.390   1.149 -0.1355  0.1952  0.1793
  196ETO    ETO  226   1.712   4.981   0.855 -0.1338  0.0042  0.1642
  197ETO    ETO  227   2.356   0.553   5.367 -0.0195 -0.0137 -0.0187
  198ETO    ETO  228   3.409   1.395   0.452  0.0696  0.2781  0.0990
  199ETO    ETO  229   5.617   5.586   0.821 -0.0326  0.3377 -0.1184
  200ETO    ETO  230   5.091   0.471   3.084 -0.0864  0.1055  0.0738
  201ETO    ETO  231   2.628   5.133   1.101  0.2199 -0.2034  0.3156
  202ETO    ETO  232   2.875   5.383   0.059  0.5411 -0.0764  0.1113
  203ETO    ETO  233   4.555   1.982   3.768 -0.3452  0.1819 -0.3239
  204ETO    ETO  234   5.738   0.955   1.240 -0.0763  0.4294 -0.0191
  205ETO    ETO  235   3.071   4.722   2.280  0.3928 -0.2954 -0.0170
  206ETO    ETO  236   2.880   0.920   1.067 -0.2279  0.3378 -0.3899
  207ETO    ETO  237   4.906   3.760   3.056  0.3417 -0.1886  0.1385
  208ETO    ETO  238   5.399   0.971   0.432  0.0056 -0.2384  0.0803
  209ETO    ETO  239   4.515   4.180   1.064 -0.0759 -0.2565  0.1409
  210ETO    ETO  240   1.441   1.312   2.360 -0.0165 -0.4188  0.1068
  211ETO    ETO  241   5.122   5.298   1.266  0.0234  0.3276  0.0677
  212ETO    ETO  242   2.441   1.544   4.851 -0.1511  0.1943  0.0162
  213ETO    ETO  243   5.283   2.467   3.427  0.2481  0.4472 -0.2764
  214ETO    ETO  244   1.652   3.818   2.374 -0.1374  0.1655 -0.0652
  215ETO    ETO  245   1.117   2.240   0.390 -0.1466  0.2625  0.0041
  216ETO    ETO  246   2.198   5.231   0.887  0.1845  0.4065  0.5583
  217ETO    ETO  247   2.121   3.115   3.889 -0.2293 -0.0816 -0.3087
  218ETO    ETO  248   1.477   4.051   3.603  0.0184  0.3988  0.1062
  219ETO    ETO  249   5.046   5.594   1.586  0.0343 -0.4528 -0.1365
  220ETO    ETO  250   4.430   0.957   4.940 -0.1799  0.3062 -0.0046
  221ETO    ETO  251   5.208   0.218   0.094  0.0217  0.1694 -0.3212
  222ETO    ETO  252   5.624   3.247   0.733  0.1680 -0.1309 -0.1306
  223ETO    ETO  253   4.668   3.562   3.331 -0.1830  0.1956 -0.3050
  224ETO    ETO  254   1.753   3.479   5.453 -0.1736  0.0605 -0.1712
  225ETO    ETO  255   1.567   1.078   1.914 -0.0237 -0.0926 -0.0853
  226ETO    ETO  256   4.759   4.984   2.544  0.2055  0.2363 -0.1887
  227ETO    ETO  257   5.301   1.674   0.765 -0.1557  0.0871  0.1875
  228ETO    ETO  258   3.869   4.550   0.976  0.0207  0.0032 -0.0704
  229ETO    ETO  259   3.090   4.554   2.766  0.1428 -0.3456  0.1040
  230ETO    ETO  260   2.645   3.792   3.859 -0.1358  0.0800  0.5011
  231ETO    ETO  261   3.381   0.233   3.776  0.1512 -0.2396  0.2469
  232ETO    ETO  262   0.309   1.426   1.558  0.1826  0.1355  0.0435
  233ETO    ETO  263   1.997   2.211   1.923 -0.0157 -0.1312  0.1780
  234ETO    ETO  264   1.024   3.705   0.670  0.2559 -0.0912 -0.4356
  235ETO    ETO  265   3.977   0.056   1.658  0.0732  0.0420  0.0630
  236ETO    ETO  266   4.058   3.830   2.531  0.4430 -0.0011  0.3075
  237ETO    ETO  267   4.020   5.657   4.399  0.0914 -0.1727 -0.1743
  238ETO    ETO  268   3.039   0.406   4.990 -0.3029 -0.3454 -0.3078
  239ETO    ETO  269   4.867   1.759   3.915  0.0112  0.0745  0.2538
  240ETO    ETO  270   2.800   2.867   4.301 -0.2931  0.5799  0.2044
  241ETO    ETO  271   1.844   4.038   1.967  0.2762 -0.0469 -0.1198
  242ETO    ETO  272   5.736   0.763   2.703 -0.0497 -0.0801 -0.1646
  243ETO    ETO  273   0.550   1.087   2.204  0.0882  0.2074  0.2594
  244ETO    ETO  274   1.368   1.993   3.373 -0.3182  0.1439  0.2314
  245ETO    ETO  275   0.021   1.624   0.668 -0.2055  0.0682 -0.1755
  246ETO    ETO  276   3.503   3.433   3.094 -0.0872 -0.0729 -0.1373
  247ETO    ETO  277   2.986   4.650   3.672 -0.0360 -0.0602 -0.1228
  248ETO    ETO  278   3.741   4.900   0.676 -0.1319  0.5871  0.3342
  249ETO    ETO  279   0.881   3.112   3.363  0.1517 -0.1465 -0.2680
  250ETO    ETO  280   1.557   2.228   2.958 -0.3413  0.1365  0.0236
  251ETO    ETO  281   0.073   5.387   0.003  0.1170 -0.0585  0.0242
  252ETO    ETO  282   3.240   0.649   0.777  0.3281 -0.3585  0.2786
  253ETO    ETO  283   3.782   0.228   3.475  0.0653 -0.2535  0.0600
  254ETO    ETO  284   0.778   5.655   3.603 -0.2660  0.0399  0.1912
  255ETO    ETO  285   1.672   5.010   4.166 -0.1699 -0.0602  0.1467
  256ETO    ETO  286   1.378   0.634   5.642  0.0073  0.1252 -0.3993
  257ETO    ETO  287   2.555   5.677   1.116 -0.2800  0.0110  0.0130
  258ETO    ETO  288   2.191   3.302   2.483 -0.2753  0.0331 -0.0168
  259ETO    ETO  289   1.524   0.010   3.598 -0.2122  0.0685  0.1192
  260ETO    ETO  290   0.151   3.109   0.338  0.4602 -0.3691  0.0027
  261ETO    ETO  291   5.070   2.257   3.111  0.0988  0.1266 -0.1451
  262ETO    ETO  292   0.638   5.453   1.303  0.0579 -0.2959  0.2454
  263ETO    ETO  293   1.872   4.896   1.251 -0.1036  0.4769  0.0084
  264ETO    ETO  294   0.051   2.488   5.684 -0.0127 -0.1763  0.2386
  265ETO    ETO  295   0.608   1.333   3.990 -0.0644 -0.0736  0.1467
  266ETO    ETO  296   3.130   2.585   3.033 -0.1990 -0.0471  0.1066
  267ETO    ETO  297   0.064   3.779   2.171 -0.3197  0.0370 -0.0090
  268ETO    ETO  298   1.753   1.563   5.509 -0.1144  0.1931  0.2025
  269ETO    ETO  299   0.273   2.222   0.825  0.1469 -0.0594  0.0518
  270ETO    ETO  300   4.236   5.385   1.239  0.0772  0.3007 -0.1088
  271ETO    ETO  301   0.215   3.888   5.308 -0.4696  0.1498 -0.3544
  272ETO    ETO  302   4.318   5.245   4.151 -0.2857  0.0168  0.0402
  273ETO    ETO  303   3.916   5.297   0.895  0.1107 -0.2244 -0.0456
  274ETO    ETO  304   1.384   4.943   3.873  0.1797  0.0170  0.5353
  275ETO    ETO  305   2.127   5.542   1.170  0.0425 -0.0940 -0.0246
  276ETO    ETO  306   2.784   5.225   2.418 -0.3392  0.3382  0.3608
  277ETO    ETO  307   5.296   0.055   2.989 -0.1004  0.1950  0.2203
  278ETO    ETO  308   5.294   0.597   0.904  0.0619 -0.3682  0.1894
  279ETO    ETO  309   2.925   5.566   3.362  0.0991  0.0700  0.2016
  280ETO    ETO  310   1.219   5.364   3.014  0.0541 -0.5221  0.1212
  281ETO    ETO  311   2.629   2.444   2.204 -0.1214  0.0403  0.3408
  282ETO    ETO  312   3.772   2.220   4.607 -0.1978 -0.1108  0.2169
  283ETO    ETO  313   4.876   5.656   0.834  0.2414 -0.0075  0.2622
  284ETO    ETO  314   0.712   3.183   4.178  0.0525 -0.3385 -0.2689
  285ETO    ETO  315   1.468   0.384   1.631  0.1787  0.1672 -0.4210
  286ETO    ETO  316   5.482   4.001   1.848 -0.3077 -0.1216 -0.1310
  287ETO    ETO  317   0.691   3.254   2.185 -0.5043  0.0154  0.0033
  288ETO    ETO  318   5.544   1.537   3.022  0.0695 -0.1474 -0.2986
  289ETO    ETO  319   5.491   1.862   1.463  0.2315 -0.0328 -0.1272
  290ETO    ETO  320   3.581   2.093   1.081  0.3892 -0.0254 -0.0465
  291ETO    ETO  321   4.353   4.197   5.064  0.5577 -0.0906  0.1019
  292ETO    ETO  322   4.581   4.468   3.855  0.1166  0.1267  0.1060
  293ETO    ETO  323   1.521   0.493   0.322  0.3315 -0.0830  0.0620
  294ETO    ETO  324   4.368   4.790   2.782 -0.0549 -0.2605  0.1824
  295ETO    ETO  325   4.466   5.453   4.557 -0.3726  0.0121 -0.2544
  296ETO    ETO  326   5.129   0.855   3.086  0.2124  0.1766 -0.2238
  297ETO    ETO  327   0.649   5.486   4.007 -0.4367  0.2030 -0.0853
  298ETO    ETO  328   0.193   2.679   0.532 -0.0337 -0.2690  0.3792
  299ETO    ETO  329   2.486   5.542   4.604  0.0529  0.2713 -0.3204
  300ETO    ETO  330   4.308   3.211   3.370 -0.1506 -0.2622 -0.5057
  301ETO    ETO  331   2.568   4.162   0.988 -0.0030 -0.2779 -0.3102
  302ETO    ETO  332   1.554   1.587   5.091 -0.0635 -0.1359 -0.0486
  303ETO    ETO  333   2.932   5.067   4.625  0.1191 -0.0084  0.1658
  304ETO    ETO  334   5.430   4.992   3.285 -0.1053  0.0017  0.2257
  305ETO    ETO  335   0.219   4.025   2.488 -0.1660 -0.1329  0.2274
  306ETO    ETO  336   5.129   5.348   3.385 -0.1122  0.0997 -0.0311
  307ETO    ETO  337   5.602   1.906   1.001  0.0501 -0.0544 -0.0900
  308ETO    ETO  338   4.539   4.112   5.555  0.4129 -0.3120  0.2644
  309ETO    ETO  339   3.175   4.941   2.653 -0.1742  0.1585 -0.1196
  310ETO    ETO  340   0.592   0.224   0.290  0.1697  0.0404  0.4094
  311ETO    ETO  341   3.238   1.279   4.062 -0.0352  0.0420  0.1290
  312ETO    ETO  342   0.897   0.373   4.559  0.1112  0.0263 -0.0235
  313ETO    ETO  343   4.649   1.530   5.663 -0.1660  0.1878 -0.0183
  314ETO    ETO  344   5.235   0.523   3.941 -0.4188 -0.0111 -0.1401
  315ETO    ETO  345   3.175   5.433   5.425 -0.1671  0.3670 -0.1073
  316ETO    ETO  346   2.733   2.200   5.513 -0.3463 -0.0889  0.0297
  317ETO    ETO  347   0.448   1.793   0.662 -0.0684 -0.2557 -0.2928
  318ETO    ETO  348   0.632   2.939   2.571  0.1840 -0.0146 -0.2570
  319ETO    ETO  349   3.810   2.982   5.720  0.2015 -0.0531 -0.1724
  320ETO    ETO  350   4.739   3.249   0.161  0.0823  0.4893  0.2810
  321ETO    ETO  351   0.963   3.665   2.994 -0.0832  0.3424  0.1886
  322ETO    ETO  352   2.654   3.114   4.865  0.2166 -0.1044  0.0445
  323ETO    ETO  353   1.790   0.864   2.795 -0.0833 -0.2007  0.0572
  324ETO    ETO  354   1.173   2.580   4.643  0.0730 -0.4865 -0.1802
  325ETO    ETO  355   0.610   0.832   3.365  0.1348 -0.2455 -0.1483
  326ETO    ETO  356   4.449   3.823   0.594  0.1681  0.2779  0.0811
  327ETO    ETO  357   2.502   4.416   0.624  0.0705  0.0899  0.0255
  328ETO    ETO  358   5.595   4.393   0.776  0.0795 -0.2827 -0.1939
  329ETO    ETO  359   2.985   2.531   4.662 -0.4525 -0.2717 -0.0193
  330ETO    ETO  360   5.173   1.489   3.260  0.2304 -0.1126  0.1575
  331ETO    ETO  361   3.947   2.922   4.647 -0.0731 -0.0765 -0.2792
  332ETO    ETO  362   1.078   4.755   2.111 -0.0986 -0.2005  0.0350
  333ETO    ETO  363   5.465   2.404   0.310  0.2607 -0.3115 -0.0455
  334ETO    ETO  364   2.525   0.998   5.154  0.3929 -0.2505  0.2050
  335ETO    ETO  365   2.344   5.639   0.729 -0.0717 -0.0799  0.1144
  336ETO    ETO  366   3.889   5.180   1.436  0.0956  0.1715 -0.0341
  337ETO    ETO  367   5.413   0.922   3.711 -0.0708  0.0153 -0.3234
  338ETO    ETO  368   3.764   1.492   3.998  0.1623  0.0049 -0.0410
  339ETO    ETO  369   2.064   0.133   2.326 -0.0150 -0.0750 -0.1537
  340ETO    ETO  370   3.523   4.746   0.206 -0.3696 -0.2846  0.0611
  341ETO    ETO  371   3.125   1.853   1.927  0.3800 -0.0897  0.1688
  342ETO    ETO  372   1.019   1.888   5.463  0.2465  0.2524 -0.0092
  343ETO    ETO  373   3.723   2.520   2.446  0.3098  0.1438 -0.0006
  344ETO    ETO  374   3.913   1.916   1.276  0.5643  0.0514  0.2331
  345ETO    ETO  375   5.410   5.003   1.526  0.2203  0.1511  0.3921
  346ETO    ETO  376   0.463   0.769   0.017 -0.1512  0.0043  0.1135
  347ETO    ETO  377   5.618   4.508   1.724  0.1281 -0.0641  0.1024
  348ETO    ETO  378   1.872   5.130   5.424  0.1790 -0.0869 -0.2303
  349ETO    ETO  379   5.257   0.162   0.906  0.0410 -0.0558  0.2114
  350ETO    ETO  380   0.153   5.669   1.389 -0.3534 -0.2450 -0.2519
  351ETO    ETO  381   4.992   0.412   0.641  0.3393 -0.0561 -0.0335
  352ETO    ETO  382   4.389   3.826   1.356  0.0606  0.3798 -0.3389
  353ETO    ETO  383   0.714   4.833   0.807 -0.2981  0.2048  0.4997
  354ETO    ETO  384   5.398   2.441   1.660 -0.0909  0.0056  0.0559
  355ETO    ETO  385   5.005   0.634   4.366 -0.2193  0.0593  0.2795
  356ETO    ETO  386   1.593   5.709   4.310 -0.2284 -0.0269 -0.1549
  357ETO    ETO  387   2.007   1.510   4.790 -0.1454 -0.1081 -0.0495
  358ETO    ETO  388   5.498   2.411   2.132  0.0369 -0.0757 -0.1946
  359ETO    ETO  389   1.117   2.913   0.643 -0.0552 -0.0671  0.2458
  360ETO    ETO  390   4.781   3.772   4.842 -0.0937 -0.0248 -0.1954
  361ETO    ETO  391   2.075   0.244   4.501  0.0194  0.2326  0.1104
  362ETO    ETO  392   2.392   3.635   0.382  0.2106 -0.1965 -0.4105
  363ETO    ETO  393   4.195   1.333   0.332  0.1412  0.2399  0.3373
  364ETO    ETO  394   1.783   0.855   4.820  0.4416  0.0984  0.0382
  365ETO    ETO  395   3.330   1.201   0.111  0.1271  0.1803  0.0873
  366ETO    ETO  396   1.992   1.763   2.003 -0.2869  0.3220 -0.4276
  367ETO    ETO  397   4.420   5.604   3.546  0.0863  0.1702 -0.0407
  368ETO    ETO  398   2.914   0.345   1.681 -0.0146 -0.3338 -0.0265
  369ETO    ETO  399   2.127   0.640   1.172  0.1421 -0.0816  0.1458
  370ETO    ETO  400   1.887   0.991   4.072  0.1412 -0.4422 -0.0532
  371ETO    ETO  401   4.810   1.288   5.054  0.0587  0.0793  0.0943
  372ETO    ETO  402   4.957   4.284   3.771 -0.2895  0.0564 -0.4538
  373ETO    ETO  403   1.751   5.425   0.715  0.1953 -0.0304  0.1051
  374ETO    ETO  404   5.295   4.513   5.462  0.1961 -0.2334 -0.0837
  375ETO    ETO  405   4.341   5.425   3.146 -0.1550  0.0787  0.0430
  376ETO    ETO  406   1.850   4.162   3.250  0.0435 -0.2580  0.1517
  377ETO    ETO  407   1.269   3.203   3.671 -0.1580  0.1546  0.1363
  378ETO    ETO  408   1.078   2.871   2.357  0.0711 -0.2685  0.0544
  379ETO    ETO  409   1.022   5.363   3.807 -0.0351  0.0882  0.3583
  380ETO    ETO  410   1.217   5.111   4.436  0.0850  0.0842 -0.0928
  381ETO    ETO  411   3.422   5.201   0.152  0.0375 -0.1071 -0.0295
  382ETO    ETO  412   1.857   4.924   0.119 -0.1903  0.3535 -0.0266
  383ETO    ETO  413   2.167   1.668   3.403 -0.3188  0.2339 -0.0476
  384ETO    ETO  414   1.957   3.464   3.305 -0.0875  0.3461 -0.0761
  385ETO    ETO  415   1.005   2.843   1.462  0.0588  0.2277 -0.0608
  386ETO    ETO  416   2.057   3.638   4.946  0.0007  0.3112 -0.2866
  387ETO    ETO  417   1.316   2.143   0.921 -0.4227 -0.0712 -0.1233
  388ETO    ETO  418   0.218   4.182   5.643 -0.0740  0.3807  0.2979
  389ETO    ETO  419   0.348   5.417   4.487 -0.1293 -0.0136  0.0145
  390ETO    ETO  420   3.203   4.785   4.356  0.0752 -0.0668 -0.0020
  391ETO    ETO  421   4.248   3.644   4.267 -0.0356  0.2457  0.3096
  392ETO    ETO  422   0.849   2.100   4.852  0.2496 -0.2399 -0.1521
  393ETO    ETO  423   3.512   1.466   1.917 -0.0088  0.0864  0.1997
  394ETO    ETO  424   2.538   2.250   5.020 -0.2446  0.2698  0.0161
  395ETO    ETO  425   4.597   2.386   0.133  0.4281 -0.0888  0.0968
  396ETO    ETO  426   3.778   1.808   2.586 -0.1769 -0.2404 -0.0111
  397ETO    ETO  427   5.357   5.282   2.504 -0.0390 -0.2498  0.1544
  398ETO    ETO  428   3.428   3.919   1.597 -0.1161 -0.0364  0.1629
  399ETO    ETO  429   0.805   2.970   3.767 -0.1206 -0.0649  0.3406
  400ETO    ETO  430   1.476   2.754   4.305  0.1655 -0.0190 -0.1048
  401ETO    ETO  431   5.354   1.640   1.885  0.3314  0.0126  0.1255
  402ETO    ETO  432   4.362   3.385   1.484 -0.3090 -0.0415 -0.0332
  403ETO    ETO  433   4.925   1.064   0.105  0.1858  0.1370  0.5269
  404ETO    ETO  434   3.621   3.227   4.824 -0.3393  0.2479  0.2439
  405ETO    ETO  435   2.585   0.083   5.115  0.4748 -0.0763  0.0263
  406ETO    ETO  436   4.634   1.365   1.530  0.1258 -0.2866 -0.4687
  407ETO    ETO  437   1.895   3.283   1.392  0.2012 -0.1925  0.1155
  408ETO    ETO  438   0.460   1.025   1.300 -0.2386 -0.3818  0.2781
  409ETO    ETO  439   4.928   4.930   0.085 -0.0055  0.0626 -0.5390
  410ETO    ETO  440   1.672   2.885   1.499  0.1329  0.0525 -0.0002
  411ETO    ETO  441   1.434   1.756   1.590 -0.1511  0.1483 -0.1432
  412ETO    ETO  442   1.651   0.481   1.274 -0.1258  0.1432 -0.1195
  413ETO    ETO  443   5.407   5.594   4.993  0.2557  0.5222 -0.5992
  414ETO    ETO  444   2.503   1.302   2.674 -0.0311  0.1007  0.2228
  415ETO    ETO  445   3.107   2.998   3.645  0.0608  0.1366  0.2091
  416ETO    ETO  446   3.172   5.299   2.251  0.1977  0.0284  0.2986
  417ETO    ETO  447   3.580   3.144   2.330 -0.1121 -0.1228  0.2655
  418ETO    ETO  448   1.357   5.385   3.407  0.0078 -0.1748  0.2388
  419ETO    ETO  449   4.410   0.891   2.392 -0.5728 -0.2950 -0.1100
  420ETO    ETO  450   3.091   2.918   1.333 -0.1744 -0.1779 -0.2775
  421ETO    ETO  451   4.042   4.548   1.602  0.0633 -0.4306 -0.3185
  422ETO    ETO  452   3.249   5.206   3.510  0.0626  0.4840  0.1877
  423ETO    ETO  453   0.298   4.487   1.924  0.1223 -0.0289 -0.2951
  424ETO    ETO  454   0.236   5.738   0.221  0.1194  0.1574 -0.1395
  425ETO    ETO  455   0.979   1.156   2.532 -0.1610  0.1541  0.1567
  426ETO    ETO  456   2.553   0.265   5.655 -0.2586  0.0742  0.0795
  427ETO    ETO  457   1.208   2.871   1.115  0.3342  0.1251 -0.2025
  428ETO    ETO  458   3.351   5.609   4.841  0.0059 -0.1817 -0.0422
  429ETO    ETO  459   4.851   5.589   4.367  0.2856  0.1801 -0.0938
  430ETO    ETO  460   1.894   5.730   2.670 -0.2291 -0.3344  0.2972
  431ETO    ETO  461   2.358   4.658   1.176 -0.2436 -0.0505  0.2362
  432ETO    ETO  462   1.830   3.986   1.076 -0.1046  0.4390 -0.0316
  433ETO    ETO  463   0.754   0.543   3.097  0.0905 -0.0344 -0.3216
  434ETO    ETO  464   5.610   1.953   3.282 -0.1228  0.2619  0.1250
  435ETO    ETO  465   4.274   4.375   3.134  0.3533 -0.2104 -0.0903
  436ETO    ETO  466   3.561   3.092   1.137 -0.2513  0.1322 -0.2165
  437ETO    ETO  467   0.189   3.602   5.666 -0.0122 -0.0376  0.0492
  438ETO    ETO  468   3.332   2.963   4.025 -0.1069  0.0278  0.0630
  439ETO    ETO  469   0.769   1.992   0.883  0.2304  0.3605  0.2294
  440ETO    ETO  470   3.447   3.634   4.066  0.0068 -0.2574 -0.0966
  441ETO    ETO  471   0.495   3.255   1.235 -0.0705 -0.2679 -0.0437
  442ETO    ETO  472   4.370   1.056   1.295  0.2247 -0.1573  0.1212
  443ETO    ETO  473   5.084   1.377   3.849  0.1400 -0.1505 -0.0495
  444ETO    ETO  474   3.536   3.629   1.903 -0.4578  0.0972  0.0466
  445ETO    ETO  475   0.620   0.976   0.910  0.0798 -0.0732 -0.2242
  446ETO    ETO  476   1.388   0.638   2.003  0.0458 -0.1496  0.0225
  447ETO    ETO  477   2.460   0.547   1.950  0.0983 -0.2738  0.0677
  448ETO    ETO  478   0.110   3.527   0.978  0.3717  0.2126 -0.0917
  449ETO    ETO  479   3.084   3.171   1.773  0.0389 -0.1827 -0.1618
  450ETO    ETO  480   0.190   2.801   1.467  0.2247  0.0828  0.2303
  451ETO    ETO  481   2.606   1.754   0.334  0.1185  0.0603 -0.2761
  452ETO    ETO  482   4.581   1.145   3.524 -0.1961 -0.1038  0.0386
  453ETO    ETO  483   1.538   3.677   1.017  0.2344  0.0938 -0.0032
  454ETO    ETO  484   3.350   4.369   1.736 -0.1095  0.0165 -0.2639
  455ETO    ETO  485   4.071   5.068   3.837 -0.0639 -0.2307 -0.0465
  456ETO    ETO  486   3.918   3.828   3.985  0.4349 -0.2114  0.2090
  457ETO    ETO  487   5.449   0.797   4.207  0.2510  0.0922  0.1610
  458ETO    ETO  488   0.952   2.510   0.127 -0.2246 -0.1474 -0.0305
  459ETO    ETO  489   4.206   3.293   4.539  0.0564  0.0270  0.1157
  460ETO    ETO  490   3.273   0.570   5.361 -0.1403  0.4127 -0.5500
  461ETO    ETO  491   4.192   4.370   4.632 -0.2992  0.2664  0.0110
  462ETO    ETO  492   4.952   2.831   4.508 -0.0494  0.2852 -0.0638
  463ETO    ETO  493   0.593   4.342   2.775  0.1773 -0.1204  0.1169
  464ETO    ETO  494   0.857   5.127   0.520 -0.0353 -0.2844 -0.2163
  465ETO    ETO  495   0.264   3.977   0.661 -0.1399 -0.3579  0.4928
  466ETO    ETO  496   4.304   0.814   1.860 -0.0336  0.3547  0.4172
  467ETO    ETO  497   3.704   0.633   5.284  0.0941  0.0697 -0.2060
  468ETO    ETO  498   2.318   5.251   4.333 -0.0729 -0.2127  0.0389
  469ETO    ETO  499   5.098   5.399   4.017  0.4191  0.2586  0.2699
  470ETO    ETO  500   4.751   2.137   4.163 -0.2356  0.4370 -0.4763
  471ETO    ETO  501   5.680   0.140   5.687 -0.1302  0.3342  0.1034
  472ETO    ETO  502   3.121   1.072   2.695 -0.1226  0.0698 -0.3201
  473ETO    ETO  503   2.284   0.805   3.849  0.0904 -0.4124  0.2424
  474ETO    ETO  504   5.221   5.070   3.751 -0.2908 -0.1504 -0.0930
  475ETO    ETO  505   2.554   4.361   4.733 -0.1393  0.1706 -0.0040
  476ETO    ETO  506   1.471   0.459   3.229  0.3117 -0.2760  0.0381
  477ETO    ETO  507   0.778   3.315   1.701  0.2825  0.1711 -0.1406
  478ETO    ETO  508   1.943   1.411   3.995 -0.4477  0.0307 -0.4731
  479ETO    ETO  509   2.235   0.395   3.998 -0.0542 -0.0197 -0.2027
  480ETO    ETO  510   2.721   4.859   2.816  0.1651  0.0284  0.3542
  481ETO    ETO  511   1.911   0.366   3.535  0.0429  0.0165 -0.1449
  482ETO    ETO  512   2.072   3.123   5.447 -0.2380 -0.0404 -0.2065
  483ETO    ETO  513   2.996   2.530   5.634 -0.4464 -0.0894 -0.0243
  484ETO    ETO  514   1.190   3.189   2.093 -0.1002 -0.2555 -0.0927
  485ETO    ETO  515   5.082   5.595   2.657 -0.1250 -0.0977  0.2088
  486ETO    ETO  516   0.492   5.338   4.943  0.1562  0.2091 -0.1153
  487ETO    ETO  517   2.367   0.053   2.032  0.3708  0.0110  0.2155
  488ETO    ETO  518   3.379   1.266   2.352  0.1445 -0.0164  0.0180
  489ETO    ETO  519   2.795   3.009   0.225  0.0033  0.1304 -0.3258
  490ETO    ETO  520   0.659   2.329   2.531 -0.2130  0.1539 -0.3161
  491ETO    ETO  521   3.767   3.914   3.220 -0.1363 -0.1726  0.4118
  492ETO    ETO  522   4.201   2.060   1.603 -0.1234 -0.0253  0.0855
  493ETO    ETO  523   2.062   1.095   4.473 -0.0804 -0.0950  0.1526
  494ETO    ETO  524   4.944   0.423   1.694  0.0055  0.1552 -0.1490
  495ETO    ETO  525   3.400   4.563   0.611 -0.1794  0.1968  0.0654
  496ETO    ETO  526   4.342   1.594   3.565  0.2380  0.1372  0.0189
  497ETO    ETO  527   2.453   0.753   0.356 -0.4230 -0.0363  0.3694
  498ETO    ETO  528   2.273   2.233   1.595 -0.0627  0.0567 -0.1592
  499ETO    ETO  529   3.004   0.938   4.224  0.1324 -0.0450 -0.0371
  500ETO    ETO  530   2.270   1.190   0.736  0.1678  0.3187 -0.1922
  501ETO    ETO  531   4.622   0.414   0.320  0.1256  0.0011 -0.0896
  502ETO    ETO  532   1.434   4.491   2.547 -0.0564  0.3105 -0.1824
  503ETO    ETO  533   5.681   5.182   1.053  0.1791 -0.2642 -0.1425
  504ETO    ETO  534   0.578   3.547   5.401 -0.3314 -0.2563 -0.4297
  505ETO    ETO  535   5.307   3.693   3.342 -0.0024  0.1022 -0.0846
  506ETO    ETO  536   4.930   0.231   5.025  0.1272  0.3076 -0.0174
  507ETO    ETO  537   5.182   2.336   4.882 -0.0056 -0.0137  0.3412
  508ETO    ETO  538   4.096   1.899   4.622  0.1526 -0.2088  0.3629
  509ETO    ETO  539   2.897   5.711   2.428 -0.2000 -0.4535  0.0405
  510ETO    ETO  540   3.477   1.588   5.728  0.0013 -0.0883 -0.2120
  511ETO    ETO  541   5.251   3.194   3.812 -0.1905  0.1881  0.0003
  512ETO    ETO  542   3.875   1.638   0.439  0.0276  0.0586 -0.0218
  513ETO    ETO  543   4.589   5.478   2.642  0.0707  0.1989 -0.0024
  514ETO    ETO  544   2.996   1.504   2.224 -0.1622 -0.1112  0.3035
  515ETO    ETO  545   2.177   4.149   4.975  0.0969 -0.0825 -0.2949
  516ETO    ETO  546   1.733   2.566   3.810  0.4316  0.1034 -0.0667
  517ETO    ETO  547   3.398   1.534   3.542 -0.2243 -0.0744  0.2286
  518ETO    ETO  548   0.774   3.702   1.077  0.2489  0.0471  0.1723
  519ETO    ETO  549   2.421   4.216   3.970 -0.3237 -0.1132 -0.2508
  520ETO    ETO  550   5.465   2.150   5.285 -0.4046  0.0432 -0.1223
  521ETO    ETO  551   2.210   2.077   0.817  0.1945 -0.3367 -0.0729
  522ETO    ETO  552   3.860   5.261   4.180  0.1569 -0.0542 -0.1612
  523ETO    ETO  553   3.945   3.554   3.380 -0.0640 -0.2823  0.1289
  524ETO    ETO  554   2.059   3.627   1.680 -0.0947 -0.0529 -0.1173
  525ETO    ETO  555   5.649   2.314   2.574  0.2053  0.1506  0.1948
  526ETO    ETO  556   5.041   3.322   3.122 -0.1027  0.0983 -0.0397
  527ETO    ETO  557   3.343   4.875   3.829  0.0316  0.0247  0.1716
  528ETO    ETO  558   5.126   4.075   2.814 -0.1254 -0.1791  0.0772
  529ETO    ETO  559   1.920   4.614   3.334  0.1561  0.0604  0.0920
  530ETO    ETO  560   2.781   5.476   2.062 -0.1949  0.4207 -0.3497
  531ETO    ETO  561   0.998   1.545   3.412 -0.1415  0.1458  0.2416
  532ETO    ETO  562   0.891   0.023   1.119  0.3097  0.1780  0.1227
  533ETO    ETO  563   5.478   4.557   5.064 -0.2311  0.0473  0.1552
  534ETO    ETO  564   5.183   4.207   1.008  0.0503  0.2262 -0.2682
  535ETO    ETO  565   5.171   0.016   0.487 -0.2831 -0.0453  0.3214
  536ETO    ETO  566   5.636   0.583   3.836 -0.0917 -0.5559  0.0845
  537ETO    ETO  567   1.264   2.268   2.325 -0.3352 -0.3054 -0.0315
  538ETO    ETO  568   3.858   5.264   5.383 -0.0388  0.1636 -0.1616
  539ETO    ETO  569   5.467   2.724   1.282 -0.0985  0.1783 -0.0544
  540ETO    ETO  570   5.705   1.990   1.832 -0.1780 -0.2891  0.0220
  541ETO    ETO  571   4.752   5.063   1.521 -0.1027  0.2769 -0.1118
  542ETO    ETO  572   3.925   3.474   1.087  0.0379  0.3120 -0.1361
  543ETO    ETO  573   1.712   5.121   4.980  0.0070  0.2157 -0.0732
  544ETO    ETO  574   3.637   0.982   4.153  0.0512 -0.4467 -0.1380
  545ETO    ETO  575   4.832   4.698   2.873 -0.0252 -0.3505 -0.1166
  546ETO    ETO  576   2.835   3.247   0.635 -0.0244 -0.3638  0.1266
  547ETO    ETO  577   2.426   0.976   3.506 -0.3018  0.0065  0.4250
  548ETO    ETO  578   1.474   0.164   2.958  0.2971  0.0400 -0.0770
  549ETO    ETO  579   5.505   4.554   4.362  0.2716 -0.0827 -0.1263
  550ETO    ETO  580   4.544   2.513   4.307 -0.1673  0.1745 -0.5104
  551ETO    ETO  581   0.785   2.874   5.482 -0.0002 -0.1044 -0.3161
  552ETO    ETO  582   3.596   2.593   1.162  0.2286 -0.1303  0.1977
  553ETO    ETO  583   1.616   0.929   4.433  0.1121  0.1026  0.1489
  554ETO    ETO  584   0.671   0.292   2.715  0.1293  0.1948 -0.5886
  555ETO    ETO  585   2.093   1.393   2.619 -0.2600 -0.2183  0.1220
  556ETO    ETO  586   1.924   2.866   2.552 -0.1040  0.1413  0.2852
  557ETO    ETO  587   5.440   3.304   3.445  0.2176 -0.1808 -0.1973
  558ETO    ETO  588   4.206   5.679   2.872 -0.3538  0.0885 -0.1055
  559ETO    ETO  589   0.960   1.628   4.596  0.3711 -0.2664 -0.3757
  560ETO    ETO  590   2.757   4.145   1.873  0.0281 -0.3352  0.0019
  561ETO    ETO  591   4.991   1.562   4.407  0.2652 -0.1706  0.1691
  562ETO    ETO  592   1.869   0.604   2.296 -0.1536  0.3048  0.1955
  563ETO    ETO  593   4.472   4.575   4.869  0.0257 -0.2716 -0.3616
  564ETO    ETO  594   3.956   1.314   3.421  0.2223  0.1081  0.2365
  565ETO    ETO  595   0.815   1.248   1.647 -0.1962 -0.0504  0.5132
  566ETO    ETO  596   1.222   1.304   4.501  0.0139  0.2421  0.0109
  567ETO    ETO  597   1.344   0.959   4.806  0.2158 -0.2524 -0.1568
  568ETO    ETO  598   4.144   0.225   0.338  0.0473  0.1395  0.0437
  569ETO    ETO  599   0.670   1.464   3.147  0.2354 -0.0781 -0.1186
  570ETO    ETO  600   0.595   4.209   1.466  0.0540 -0.0867  0.2489
  571ETO    ETO  601   0.066   0.819   3.534  0.0095 -0.0482 -0.2173
  572ETO    ETO  602   0.581   4.068   4.372 -0.0511 -0.0992 -0.0360
  573ETO    ETO  603   4.020   2.354   1.839 -0.6887 -0.3038 -0.0893
  574ETO    ETO  604   2.645   3.839   3.123 -0.0319 -0.2909  0.2186
  575ETO    ETO  605   0.769   3.197   0.882  0.0975 -0.0469 -0.2581
  576ETO    ETO  606   4.064   3.541   5.338 -0.1140 -0.0208 -0.0818
  577ETO    ETO  607   4.351   5.476   5.066  0.1464  0.1847 -0.3608
  578ETO    ETO  608   0.354   3.616   4.995  0.3162 -0.1010 -0.1463
  579ETO    ETO  609   2.278   5.118   0.157  0.0365 -0.1763 -0.1885
  580ETO    ETO  610   5.069   0.573   4.789  0.0671  0.0210 -0.1138
  581ETO    ETO  611   4.616   4.942   1.928 -0.0179 -0.0358  0.1854
  582ETO    ETO  612   2.383   1.243   2.292  0.3361 -0.0146  0.1922
  583ETO    ETO  613   3.017   3.533   0.998 -0.1082  0.3037 -0.1074
  584ETO    ETO  614   2.483   1.649   5.634  0.2955 -0.0532 -0.0011
  585ETO    ETO  615   3.693   1.548   3.092  0.4684  0.0915 -0.0853
  586ETO    ETO  616   2.881   2.350   0.529  0.1326  0.0925  0.0845
  587ETO    ETO  617   0.681   3.960   4.931 -0.5495  0.0398  0.1864
  588ETO    ETO  618   3.257   4.468   4.046 -0.5261 -0.2587  0.2207
  589ETO    ETO  619   2.586   2.500   0.908  0.2476  0.2407  0.1845
  590ETO    ETO  620   0.872   1.070   0.286  0.2403 -0.0657 -0.3867
  591ETO    ETO  621   0.820   5.526   2.535  0.1241  0.1173  0.0368
  592ETO    ETO  622   3.992   4.780   2.490  0.0131  0.1381 -0.0595
  593ETO    ETO  623   4.244   2.374   2.229  0.1034  0.0686 -0.2564
  594ETO    ETO  624   3.719   5.737   5.209  0.1425  0.1155 -0.0590
  595ETO    ETO  625   3.418   1.590   2.796 -0.0946 -0.1991 -0.1882
  596ETO    ETO  626   4.976   5.019   5.369  0.1317  0.2751 -0.1958
  597ETO    ETO  627   3.929   3.831   1.334  0.2491 -0.3504  0.3245
  598ETO    ETO  628   1.699   4.134   0.266  0.0910  0.1978 -0.0369
  599ETO    ETO  629   5.154   0.795   1.814 -0.0244  0.2159  0.0752
  600ETO    ETO  630   3.092   1.389   3.171  0.0010  0.0541 -0.2013
  601ETO    ETO  631   5.507   3.530   1.580  0.2052 -0.1965  0.0641
  602ETO    ETO  632   1.240   0.812   1.174  0.0745  0.5599  0.0564
  603ETO    ETO  633   1.262   4.937   4.894 -0.0099  0.5593  0.1845
  604ETO    ETO  634   0.471   0.734   2.668 -0.0055 -0.1468  0.0121
  605ETO    ETO  635   4.287   3.174   0.843  0.1601 -0.4632  0.2319
  606ETO    ETO  636   3.783   5.033   3.303  0.0487  0.2687  0.0120
  607ETO    ETO  637   0.047   0.960   0.204 -0.5497  0.1491  0.0368
  608ETO    ETO  638   2.610   0.172   3.330 -0.2970 -0.1272  0.2419
  609ETO    ETO  639   2.244   0.146   2.912 -0.0182 -0.1405  0.3010
  610ETO    ETO  640   2.249   1.780   3.786  0.1346  0.3145  0.5137
  611ETO    ETO  641   1.285   0.208   1.981 -0.3348  0.2046  0.1267
  612ETO    ETO  642   0.267   0.479   5.437 -0.4359  0.0792  0.2437
  613ETO    ETO  643   0.977   2.905   2.875 -0.0648 -0.2597 -0.0789
  614ETO    ETO  644   4.749   1.359   2.312  0.2136 -0.0516 -0.2141
  615ETO    ETO  645   0.474   1.235   0.005  0.1873 -0.0651 -0.0669
  616ETO    ETO  646   4.104   1.200   5.087  0.0099 -0.0897  0.1774
  617ETO    ETO  647   4.881   4.156   0.635  0.0560 -0.5671  0.1736
  618ETO    ETO  648   5.194   5.731   1.974  0.0366  0.0874 -0.1891
  619ETO    ETO  649   4.101   4.119   0.570 -0.2144 -0.0115 -0.3581
  620ETO    ETO  650   3.255   1.953   3.403  0.1651  0.0329  0.3697
  621ETO    ETO  651   0.728   5.226   4.418  0.2652  0.0920 -0.5038
  622ETO    ETO  652   2.167   3.063   3.334  0.2084  0.0398 -0.2219
  623ETO    ETO  653   0.792   5.739   3.022 -0.1025 -0.1058  0.1624
  624ETO    ETO  654   1.177   1.677   1.899 -0.1652 -0.1184 -0.1474
  625ETO    ETO  655   2.212   0.017   4.896  0.0354 -0.1165  0.2201
  626ETO    ETO  656   3.897   0.424   4.331  0.0961 -0.2069 -0.1376
  627ETO    ETO  657   2.521   0.642   3.151 -0.0350  0.3965  0.1052
  628ETO    ETO  658   2.861   3.448   3.816  0.0225 -0.2589  0.1836
  629ETO    ETO  659   4.902   2.599   1.415  0.0905  0.0254  0.0269
  630ETO    ETO  660   3.446   5.528   3.821  0.0203 -0.3700 -0.0841
  631ETO    ETO  661   1.604   5.141   3.135 -0.0108 -0.1669 -0.0866
  632ETO    ETO  662   3.710   5.548   1.208 -0.1232  0.2889 -0.1472
  633ETO    ETO  663   4.945   4.081   2.205 -0.0137 -0.1715  0.4677
  634ETO    ETO  664   4.254   1.944   1.059  0.1173  0.0360  0.1768
  635ETO    ETO  665   1.171   1.735   4.918 -0.0078 -0.0042  0.0307
  636ETO    ETO  666   5.602   0.003   1.818  0.2356  0.0378 -0.0249
  637ETO    ETO  667   4.797   3.001   2.672 -0.1445 -0.0047  0.0188
  638ETO    ETO  668   2.530   2.125   2.908  0.0128  0.2795  0.4263
  639ETO    ETO  669   1.924   4.205   0.726  0.3572 -0.2442  0.5306
  640ETO    ETO  670   2.277   2.158   3.376 -0.2880 -0.0216  0.2955
  641ETO    ETO  671   1.395   5.236   5.222  0.0377 -0.4970  0.0413
  642ETO    ETO  672   4.294   3.799   3.341  0.0262 -0.2093  0.1300
  643ETO    ETO  673   3.892   0.935   1.326 -0.2793  0.1235  0.3490
  644ETO    ETO  674   4.630   2.242   1.892  0.1360  0.2140  0.0597
  645ETO    ETO  675   3.470   2.115   5.043 -0.2385 -0.2676 -0.2059
  646ETO    ETO  676   0.662   2.108   1.797  0.2744 -0.0894 -0.0570
  647ETO    ETO  677   2.588   3.552   1.120 -0.2306  0.8100 -0.1906
  648ETO    ETO  678   0.970   4.677   1.358 -0.1921 -0.0864 -0.4020
  649ETO    ETO  679   4.121   0.919   0.494  0.0288  0.1826 -0.1519
  650ETO    ETO  680   2.023   2.685   5.095 -0.1588 -0.1239 -0.3239
  651ETO    ETO  681   3.159   3.151   0.956 -0.0863  0.0734  0.3136
  652ETO    ETO  682   4.190   2.901   2.289 -0.4093 -0.5055  0.0863
  653ETO    ETO  683   3.395   5.240   1.375 -0.0326  0.1701 -0.3556
  654ETO    ETO  684   3.968   1.791   3.693 -0.1642  0.1595 -0.0752
  655ETO    ETO  685   5.591   1.542   4.538  0.3717 -0.2445  0.1159
  656ETO    ETO  686   1.087   0.734   4.435  0.2134  0.0825  0.4606
  657ETO    ETO  687   0.054   5.093   3.513 -0.0405 -0.3053  0.4187
  658ETO    ETO  688   1.596   1.593   2.003  0.1886  0.0854  0.1364
  659ETO    ETO  689   0.827   4.526   3.136  0.0297 -0.1078 -0.0340
  660ETO    ETO  690   4.215   3.947   2.924 -0.3051 -0.1581 -0.1010
  661ETO    ETO  691   4.626   3.522   4.528  0.2825 -0.0881 -0.1111
  662ETO    ETO  692   4.543   2.374   0.753 -0.2920  0.1182 -0.2397
  663ETO    ETO  693   1.715   1.197   5.279  0.0592  0.1394  0.1363
  664ETO    ETO  694   3.084   0.456   0.350 -0.2175 -0.3642  0.1985
  665ETO    ETO  695   3.045   4.139   2.611 -0.1857  0.0559 -0.1989
  666ETO    ETO  696   0.851   4.769   4.478 -0.4270  0.1200 -0.1455
  667ETO    ETO  697   0.394   4.457   3.242  0.0351 -0.0581  0.0002
  668ETO    ETO  698   3.634   1.510   4.747  0.0134 -0.0482  0.3488
  669ETO    ETO  699   1.111   0.376   5.371 -0.1572 -0.5158 -0.0716
  670ETO    ETO  700   2.178   5.440   2.173 -0.0164 -0.2370  0.0225
  671ETO    ETO  701   1.641   1.049   5.704  0.1696  0.3117 -0.3443
  672ETO    ETO  702   4.885   2.560   4.068  0.0211  0.4674  0.3315
  673ETO    ETO  703   0.975   5.619   1.706  0.4739 -0.0292  0.1542
  674ETO    ETO  704   2.477   3.066   0.758 -0.1065  0.2026 -0.1739
  675ETO    ETO  705   1.597   1.340   4.230  0.0530 -0.2025 -0.2936
  676ETO    ETO  706   3.891   1.499   5.687  0.2263 -0.0258  0.2143
  677ETO    ETO  707   5.676   0.952   2.274 -0.2084 -0.0192 -0.0423
  678ETO    ETO  708   3.151   1.750   0.373  0.0210  0.0452 -0.0621
  679ETO    ETO  709   4.226   1.070   3.245  0.2834 -0.0584 -0.2368
  680ETO    ETO  710   3.324   4.536   5.466 -0.2981 -0.2105 -0.1191
  681ETO    ETO  711   2.124   4.788   4.128  0.2559 -0.0958 -0.0968
  682ETO    ETO  712   0.051   4.867   1.367  0.3680 -0.4884 -0.0195
  683ETO    ETO  713   4.742   2.205   2.318 -0.4476  0.4173  0.1567
  684ETO    ETO  714   3.080   3.276   4.767  0.0705 -0.2898 -0.1738
  685ETO    ETO  715   0.793   2.696   4.759  0.0203  0.1197 -0.1234
  686ETO    ETO  716   3.716   1.033   4.955  0.2048 -0.1613  0.4176
  687ETO    ETO  717   5.123   5.320   0.823 -0.2085 -0.4195  0.1462
  688ETO    ETO  718   1.403   1.194   1.125  0.4198 -0.2615 -0.1114
  689ETO    ETO  719   3.949   5.591   3.728  0.4283 -0.1735  0.0559
  690ETO    ETO  720   1.157   2.992   0.084  0.0809  0.2132  0.1157
  691ETO    ETO  721   4.404   3.282   5.670 -0.4766 -0.0756  0.1359
  692ETO    ETO  722   1.512   4.208   4.302  0.1797  0.7020  0.2500
  693ETO    ETO  723   4.184   2.839   3.224  0.0621 -0.1005 -0.0239
  694ETO    ETO  724   2.686   0.558   3.596  0.1485 -0.1473 -0.2829
  695ETO    ETO  725   2.322   1.369   3.151 -0.0071 -0.2220  0.0566
  696ETO    ETO  726   1.632   4.404   5.296 -0.2777 -0.1456 -0.5239
  697ETO    ETO  727   2.786   4.479   5.060  0.1224 -0.1784 -0.0314
  698ETO    ETO  728   0.981   4.958   3.990 -0.1740 -0.1767 -0.2269
  699ETO    ETO  729   1.706   5.580   5.285 -0.1412 -0.0695 -0.1039
  700ETO    ETO  730   1.613   1.999   0.069  0.0751  0.1088  0.2707
  701ETO    ETO  731   0.663   1.207   3.550 -0.5479  0.0634 -0.1007
  702ETO    ETO  732   2.183   1.084   1.155 -0.0046  0.6645  0.0648
  703ETO    ETO  733   4.652   2.359   3.327 -0.3962 -0.0801  0.0432
  704ETO    ETO  734   0.925   4.317   4.815 -0.1108  0.3703  0.3687
  705ETO    ETO  735   2.776   4.342   3.074 -0.0291 -0.1004 -0.1695
  706ETO    ETO  736   2.750   0.950   2.260 -0.0970 -0.1792  0.2425
  707ETO    ETO  737   1.677   4.393   1.701 -0.0409 -0.1523 -0.0054
  708ETO    ETO  738   0.074   3.747   2.955 -0.3391 -0.2611  0.2148
  709ETO    ETO  739   4.489   3.798   2.634  0.0133  0.0241  0.4741
  710ETO    ETO  740   2.967   0.161   3.651 -0.2626  0.2551  0.0050
  711ETO    ETO  741   1.689   5.333   4.512 -0.3769  0.0105 -0.1812
  712ETO    ETO  742   3.637   0.591   1.201  0.1318 -0.1849  0.0110
  713ETO    ETO  743   2.569   4.440   4.311  0.0127  0.2450  0.1969
  714ETO    ETO  744   0.986   2.892   1.882  0.1185 -0.0138 -0.0143
  715ETO    ETO  745   0.290   3.126   0.860 -0.2599 -0.0767 -0.1419
  716ETO    ETO  746   1.777   5.325   1.156  0.0394  0.2022 -0.3161
  717ETO    ETO  747   5.072   3.737   1.708  0.2676 -0.1693 -0.1118
  718ETO    ETO  748   5.598   2.730   2.418 -0.2992 -0.2365  0.1261
  719ETO    ETO  749   3.569   5.510   5.564 -0.0648  0.0276 -0.2252
  720ETO    ETO  750   1.400   4.959   0.505  0.1807 -0.0501  0.1006
  721ETO    ETO  751   4.775   0.738   5.160 -0.1429 -0.0602 -0.1521
  722ETO    ETO  752   5.419   5.356   1.903 -0.1518  0.2342 -0.0288
  723ETO    ETO  753   0.521   2.252   3.640  0.4399 -0.0556 -0.0355
  724ETO    ETO  754   2.302   5.500   2.727 -0.6354  0.0670  0.2668
  725ETO    ETO  755   3.160   0.153   0.637  0.1509 -0.1164  0.0255
  726ETO    ETO  756   0.205   1.997   5.173 -0.2123  0.1802 -0.3528
  727ETO    ETO  757   4.477   2.010   3.059 -0.5174  0.1951 -0.2635
  728ETO    ETO  758   2.176   3.811   0.058  0.0876 -0.1193  0.0471
  729ETO    ETO  759   5.020   2.859   0.286  0.5226  0.3687 -0.0660
  730ETO    ETO  760   4.980   4.459   4.226  0.1027 -0.1820  0.0246
  731ETO    ETO  761   0.146   4.214   2.921  0.0354 -0.0300  0.1232
  732ETO    ETO  762   5.233   3.660   0.821 -0.2578 -0.0219  0.0292
  733ETO    ETO  763   4.571   2.945   4.336 -0.4162 -0.0703 -0.0155
  734ETO    ETO  764   1.500   3.195   5.672  0.1540 -0.1760 -0.1424
  735ETO    ETO  765   5.471   1.284   5.338  0.3076  0.1770  0.0320
  736ETO    ETO  766   4.529   1.639   4.741 -0.0819  0.0496 -0.4263
  737ETO    ETO  767   2.890   2.451   2.543  0.3334  0.2299 -0.0126
  738ETO    ETO  768   4.014   4.600   3.591 -0.1982 -0.0074 -0.1376
  739ETO    ETO  769   3.398   0.723   3.566  0.2730  0.1687 -0.0040
  740ETO    ETO  770   0.078   2.133   3.821  0.0483  0.2630  0.0255
  741ETO    ETO  771   5.156   2.712   3.760  0.1347  0.1079 -0.0595
  742ETO    ETO  772   0.924   0.542   3.515 -0.0275  0.5235 -0.1390
  743ETO    ETO  773   3.794   0.111   4.041 -0.0372 -0.4007  0.0652
  744ETO    ETO  774   1.751   1.609   2.419 -0.0522 -0.1603 -0.2762
  745ETO    ETO  775   0.520   1.943   2.974  0.1122  0.1280 -0.1388
  746ETO    ETO  776   4.366   4.932   2.391 -0.0362 -0.2853  0.0191
  747ETO    ETO  777   4.556   0.437   1.467 -0.0476 -0.4759 -0.0479
  748ETO    ETO  778   2.207   2.564   3.600  0.1771  0.3226  0.1074
  749ETO    ETO  779   4.323   3.878   3.892 -0.0015 -0.4332 -0.1735
  750ETO    ETO  780   4.943   5.288   1.846 -0.2173  0.3139  0.0335
  751ETO    ETO  781   2.452   3.512   4.848  0.0312  0.3685  0.1408
  752ETO    ETO  782   3.452   4.348   3.544  0.0947 -0.1583  0.1551
  753ETO    ETO  783   2.470   2.929   5.525  0.2061  0.1923 -0.0089
  754ETO    ETO  784   0.133   0.473   4.225  0.5134 -0.4506  0.0853
  755ETO    ETO  785   3.897   4.289   3.286 -0.3426 -0.2039 -0.0240
  756ETO    ETO  786   5.261   4.130   4.403 -0.3316 -0.2476  0.0093
  757ETO    ETO  787   3.173   5.526   0.384  0.0937 -0.0050 -0.1260
  758ETO    ETO  788   3.552   1.037   3.064 -0.0874 -0.2407 -0.3840
  759ETO    ETO  789   2.059   3.124   2.865  0.2156 -0.0331 -0.2513
  760ETO    ETO  790   2.989   3.568   3.045 -0.0889  0.0780 -0.3407
  761ETO    ETO  791   0.848   0.259   5.008 -0.2465 -0.3360  0.0529
  762ETO    ETO  792   2.743   1.862   4.943  0.0423  0.0644 -0.3371
  763ETO    ETO  793   2.356   1.277   3.890  0.3869 -0.1710 -0.3956
  764ETO    ETO  794   0.354   4.682   2.881 -0.0912  0.1199 -0.2427
  765ETO    ETO  795   0.664   2.435   5.610  0.3556 -0.1789  0.0759
  766ETO    ETO  796   4.667   0.057   1.594 -0.0391  0.0095  0.1791
  767ETO    ETO  797   0.754   2.609   0.481 -0.1241 -0.0137 -0.0598
  768ETO    ETO  798   0.197   4.801   2.257  0.2222 -0.0050 -0.3559
  769ETO    ETO  799   5.279   0.078   5.358  0.2898 -0.3810 -0.1087
  770ETO    ETO  800   4.894   1.951   4.526 -0.2348  0.1515 -0.0079
  771ETO    ETO  801   0.308   4.191   5.027  0.5905 -0.0087  0.2295
  772ETO    ETO  802   2.229   2.677   3.138 -0.4085 -0.1290 -0.3103
  773ETO    ETO  803   5.504   0.102   2.618  0.2247 -0.0341  0.2384
  774ETO    ETO  804   4.933   4.408   2.544  0.0908 -0.2598  0.0639
  775ETO    ETO  805   4.522   4.287   2.660 -0.4512  0.2658 -0.0510
  776ETO    ETO  806   4.079   4.953   1.079  0.1589  0.0524  0.2724
  777ETO    ETO  807   2.226   4.164   0.370  0.0566 -0.0667  0.2645
  778ETO    ETO  808   0.308   2.546   1.848  0.1307 -0.1235  0.3544
  779ETO    ETO  809   3.138   3.084   2.297 -0.0919  0.2732  0.1779
  780ETO    ETO  810   2.494   2.844   1.922 -0.0178  0.1946 -0.3537
  781ETO    ETO  811   5.386   2.771   4.248 -0.4119  0.0477 -0.2481
  782ETO    ETO  812   5.221   0.601   0.236  0.1955 -0.3901  0.0110
  783ETO    ETO  813   3.479   2.544   4.694  0.1832 -0.2831  0.0346
  784ETO    ETO  814   1.539   0.884   3.167  0.2868 -0.2379 -0.0173
  785ETO    ETO  815   4.088   3.046   5.393 -0.1515  0.0937  0.0191
  786ETO    ETO  816   1.874   5.428   0.020  0.2740  0.1060  0.0094
  787ETO    ETO  817   0.220   4.121   4.224 -0.1037 -0.0033 -0.0766
  788ETO    ETO  818   5.202   1.990   3.401  0.2626 -0.1261 -0.1004
  789ETO    ETO  819   1.972   1.158   3.051  0.0954  0.1393  0.0419
  790ETO    ETO  820   3.928   3.151   3.118 -0.0028 -0.1180 -0.1337
  791ETO    ETO  821   1.627   4.583   2.917 -0.0765 -0.0383 -0.4136
  792ETO    ETO  822   4.723   5.267   5.032 -0.2526 -0.3354 -0.0284
  793ETO    ETO  823   0.596   4.678   1.618  0.1604  0.1281 -0.0001
  794ETO    ETO  824   2.743   1.103   1.457 -0.2909 -0.0767  0.2752
  795ETO    ETO  825   4.286   2.019   3.431 -0.2805  0.1530 -0.0276
  796ETO    ETO  826   3.545   4.287   3.022  0.0126 -0.3165  0.2915
  797ETO    ETO  827   3.957   4.902   5.037  0.3984  0.4751 -0.2473
  798ETO    ETO  828   1.069   1.335   2.181  0.1176  0.0145  0.3674
  799ETO    ETO  829   0.645   3.801   2.726  0.0429  0.0804  0.0968
  800ETO    ETO  830   2.560   3.229   4.081 -0.4353  0.0580 -0.4018
  801ETO    ETO  831   0.217   0.540   0.264 -0.4400 -0.0120  0.0503
  802ETO    ETO  832   2.456   4.500   3.695  0.1615 -0.0518 -0.1868
  803ETO    ETO  833   4.076   1.110   1.693 -0.1809  0.1344 -0.0995
  804ETO    ETO  834   3.340   2.983   4.469 -0.0096 -0.0099  0.2686
  805ETO    ETO  835   0.908   4.351   2.479 -0.1730 -0.4842 -0.4365
  806ETO    ETO  836   4.994   4.963   1.014 -0.1885 -0.1886  0.1435
  807ETO    ETO  837   2.860   3.525   0.251 -0.3263  0.0179  0.1706
  808ETO    ETO  838   1.201   1.984   4.580  0.2535 -0.1609  0.0194
  809ETO    ETO  839   4.674   0.828   1.630  0.0125  0.0697 -0.0259
  810ETO    ETO  840   5.102   1.608   2.252  0.2066 -0.4547 -0.0182
  811ETO    ETO  841   1.211   0.030   2.636  0.0274  0.1442  0.1126
  812ETO    ETO  842   2.139   5.702   1.596  0.2103 -0.3780 -0.3636
  813ETO    ETO  843   5.270   5.140   5.057  0.1781 -0.2053 -0.0215
  814ETO    ETO  844   0.522   1.913   3.982  0.1754 -0.0877  0.1354
  815ETO    ETO  845   1.540   5.616   2.273 -0.3905  0.0079 -0.0598
  816ETO    ETO  846   4.853   4.565   5.065 -0.0603 -0.0516 -0.2453
  817ETO    ETO  847   3.916   1.900   0.094  0.4414  0.0945 -0.0481
  818ETO    ETO  848   2.179   0.096   3.391  0.1892 -0.0926 -0.0775
  819ETO    ETO  849   5.718   1.312   2.677 -0.2955 -0.6628  0.0734
  820ETO    ETO  850   0.868   0.015   4.256 -0.0366  0.1286  0.1836
  821ETO    ETO  851   4.697   5.229   3.426 -0.0938 -0.1160  0.0690
  822ETO    ETO  852   2.690   5.595   3.718 -0.2399  0.1091 -0.1185
  823ETO    ETO  853   2.752   1.409   4.541  0.2998  0.1518 -0.0753
  824ETO    ETO  854   5.326   3.606   2.919  0.0272  0.3297 -0.2685
  825ETO    ETO  855   5.489   2.445   3.955  0.1114 -0.1045 -0.0518
  826ETO    ETO  856   2.333   4.768   0.425 -0.2409  0.2500 -0.0831
  827ETO    ETO  857   4.351   0.834   4.532 -0.1156  0.2435 -0.3430
  828ETO    ETO  858   2.388   1.659   0.702  0.1870 -0.0413  0.0554
  829ETO    ETO  859   3.298   3.562   5.011 -0.3282  0.6404  0.0024
  830ETO    ETO  860   3.222   0.057   4.200  0.0398 -0.1402 -0.0562
  831ETO    ETO  861   3.099   5.014   3.076 -0.0203 -0.0934  0.4705
  832ETO    ETO  862   2.595   0.468   0.845 -0.2232 -0.0615 -0.0163
  833ETO    ETO  863   4.251   0.596   0.105 -0.0633 -0.4749  0.2724
  834ETO    ETO  864   4.183   1.675   0.749 -0.1474  0.0237  0.0261
  835ETO    ETO  865   3.254   0.722   4.555  0.0185  0.0466  0.4587
  836ETO    ETO  866   2.918   4.781   4.080  0.1359 -0.3417 -0.3823
  837ETO    ETO  867   2.614   5.047   5.657  0.2186  0.3645  0.2819
  838ETO    ETO  868   4.498   2.340   1.166  0.1467  0.0982 -0.1295
  839ETO    ETO  869   1.054   3.821   3.721  0.2010 -0.3712 -0.1006
  840ETO    ETO  870   5.561   0.445   4.584 -0.1543 -0.0878 -0.1199
  841ETO    ETO  871   5.265   1.788   4.678  0.1226  0.0758  0.1178
  842ETO    ETO  872   4.954   2.302   1.094  0.1405 -0.1263 -0.1037
  843ETO    ETO  873   2.990   3.831   3.644 -0.1625 -0.0277 -0.0915
  844ETO    ETO  874   4.119   0.518   1.447  0.3905  0.0193 -0.3919
  845ETO    ETO  875   3.768   2.721   4.970 -0.1841  0.1206  0.2513
  846ETO    ETO  876   1.056   1.304   2.976 -0.0155  0.2227 -0.4590
  847ETO    ETO  877   3.913   4.107   0.088  0.2720 -0.4529  0.3271
  848ETO    ETO  878   1.264   3.640   2.546  0.1173  0.3953 -0.0061
  849ETO    ETO  879   4.834   4.066   5.186  0.1107 -0.3143  0.0018
  850ETO    ETO  880   3.386   3.773   2.814  0.1498 -0.1203 -0.0036
  851ETO    ETO  881   1.994   0.675   3.111  0.2652  0.1315  0.0845
  852ETO    ETO  882   3.060   1.322   1.210 -0.1238  0.0887 -0.0530
  853ETO    ETO  883   0.297   3.547   2.446  0.0174  0.1236 -0.1702
  854ETO    ETO  884   0.868   5.430   0.786  0.2308 -0.1883  0.1564
  855ETO    ETO  885   2.506   0.884   1.013 -0.2646  0.2090 -0.0681
  856ETO    ETO  886   1.665   3.717   1.486  0.1560  0.1784  0.3995
  857ETO    ETO  887   2.447   3.034   3.027  0.2842 -0.0077 -0.2920
  858ETO    ETO  888   4.552   4.518   5.440 -0.0082 -0.0081  0.1776
  859ETO    ETO  889   4.297   3.704   2.181 -0.1045  0.1638 -0.2270
  860ETO    ETO  890   4.597   0.515   3.802  0.0546 -0.1104  0.1290
  861ETO    ETO  891   1.254   0.003   0.829  0.1075  0.1780 -0.0788
  862ETO    ETO  892   1.119   0.846   3.242  0.1879  0.2008  0.3132
  863ETO    ETO  893   3.799   1.078   2.446 -0.0850 -0.3692 -0.0580
  864ETO    ETO  894   4.583   2.718   2.350  0.2824 -0.0782 -0.0437
  865ETO    ETO  895   1.494   2.908   2.082 -0.3056  0.0059 -0.1919
  866ETO    ETO  896   1.904   4.841   2.357 -0.1656 -0.0163 -0.0206
  867ETO    ETO  897   2.487   5.206   0.588  0.0304 -0.1722 -0.2048
  868ETO    ETO  898   3.351   3.515   4.533 -0.0221 -0.3893 -0.1490
  869ETO    ETO  899   5.702   3.335   3.101 -0.0753 -0.1054 -0.1630
  870ETO    ETO  900   2.067   0.415   2.651 -0.2917 -0.0153 -0.1901
  871ETO    ETO  901   0.319   1.829   1.565  0.1182  0.0993 -0.2657
  872ETO    ETO  902   0.468   3.668   3.595 -0.1022  0.0948  0.1883
  873ETO    ETO  903   3.648   3.421   5.624 -0.1837  0.2063 -0.2120
  874ETO    ETO  904   1.708   0.275   0.690  0.2077 -0.3187  0.0855
  875ETO    ETO  905   1.179   1.419   1.575 -0.0910  0.3348 -0.0936
  876ETO    ETO  906   5.566   4.449   1.205  0.3128  0.4216  0.2525
  877ETO    ETO  907   3.264   3.026   0.568  0.0910  0.0098 -0.0809
  878ETO    ETO  908   1.009   5.389   2.086 -0.1993 -0.0259 -0.3850
  879ETO    ETO  909   1.636   4.618   0.634 -0.0905  0.0096 -0.0754
  880ETO    ETO  910   4.255   4.203   1.425  0.2822  0.0037  0.0151
  881ETO    ETO  911   2.984   1.759   3.051 -0.1237  0.0330 -0.2449
  882ETO    ETO  912   0.266   2.651   2.454  0.0897 -0.3583 -0.1093
  883ETO    ETO  913   3.863   0.930   4.564  0.2535  0.0777  0.0076
  884ETO    ETO  914   0.189   0.443   4.990 -0.1066 -0.0186  0.0293
  885ETO    ETO  915   0.225   4.932   1.764 -0.3570  0.0925  0.0802
  886ETO    ETO  916   1.018   0.550   4.022 -0.0396 -0.1335  0.0672
  887ETO    ETO  917   3.447   2.492   3.998 -0.0807  0.0079 -0.0288
  888ETO    ETO  918   4.573   3.354   3.681  0.0830 -0.6063 -0.2712
  889ETO    ETO  919   5.508   4.093   3.107 -0.0542  0.0192 -0.2654
  890ETO    ETO  920   4.381   3.088   2.720  0.1519  0.2598  0.1457
  891ETO    ETO  921   5.256   4.255   1.510 -0.0059 -0.3118  0.0677
  892ETO    ETO  922   5.043   0.534   2.164 -0.3934  0.0150  0.1405
  893ETO    ETO  923   1.290   1.169   5.262 -0.2341 -0.0711 -0.0292
  894ETO    ETO  924   0.020   2.772   0.902  0.1202 -0.1019  0.2857
  895ETO    ETO  925   0.696   0.327   5.540  0.0417  0.0989  0.1194
  896ETO    ETO  926   2.121   0.945   2.564  0.2043  0.4330  0.0581
  897ETO    ETO  927   0.888   1.214   1.233 -0.2458  0.1073  0.0375
  898ETO    ETO  928   4.847   5.477   0.344  0.0794 -0.2133  0.0310
  899ETO    ETO  929   1.378   3.024   3.210 -0.2490 -0.2354 -0.1109
  900ETO    ETO  930   0.760   1.599   0.024 -0.2363  0.0991 -0.3392
  901ETO    ETO  931   2.062   3.899   3.899 -0.1646  0.1359  0.2960
  902ETO    ETO  932   5.525   1.857   2.262  0.1130  0.1420  0.6485
  903ETO    ETO  933   0.580   0.585   5.210  0.5019  0.2447 -0.1282
  904ETO    ETO  934   0.227   5.185   0.581 -0.0854 -0.1272 -0.2063
  905ETO    ETO  935   0.397   2.226   4.815  0.3159  0.5136 -0.1488
  906ETO    ETO  936   5.683   1.472   0.151 -0.0262 -0.3901  0.3272
  907ETO    ETO  937   5.102   3.284   2.089 -0.2784  0.2449 -0.0036
  908ETO    ETO  938   1.745   2.751   2.969  0.0596  0.0877 -0.2093
  909ETO    ETO  939   0.328   2.491   5.365 -0.1129 -0.0250  0.0324
  910ETO    ETO  940   3.443   3.190   1.960 -0.2042 -0.0278  0.4623
  911ETO    ETO  941   2.627   4.801   2.216 -0.0964  0.1326  0.0833
  912ETO    ETO  942   1.187   2.253   5.618 -0.0905  0.0188  0.2024
  913ETO    ETO  943   4.476   2.613   3.000  0.2536  0.0732 -0.0794
  914ETO    ETO  944   3.829   1.952   4.152  0.1171  0.0743  0.4224
  915ETO    ETO  945   2.563   4.134   3.490  0.3365 -0.2718 -0.0342
  916ETO    ETO  946   0.149   1.150   1.857 -0.2049 -0.0022 -0.1790
  917ETO    ETO  947   4.473   3.577   5.063  0.0523  0.2440 -0.4684
  918ETO    ETO  948   4.289   0.724   2.998 -0.2836  0.0725 -0.0971
  919ETO    ETO  949   4.817   3.661   0.666  0.0418  0.1345  0.0110
  920ETO    ETO  950   2.515   0.557   4.260 -0.4837  0.0057  0.1734
  921ETO    ETO  951   4.125   3.249   4.970 -0.1398 -0.3838 -0.1113
  922ETO    ETO  952   1.264   5.311   0.777 -0.1548  0.3939 -0.0974
  923ETO    ETO  953   3.606   3.034   2.799 -0.1427 -0.2783  0.0918
  924ETO    ETO  954   1.904   2.866   0.005 -0.1247 -0.2935 -0.1562
  925ETO    ETO  955   3.247   3.435   3.489  0.2140 -0.0835  0.1559
  926ETO    ETO  956   4.597   0.900   5.585  0.0266  0.1872  0.2686
  927ETO    ETO  957   3.459   2.606   2.798 -0.0138 -0.1862  0.1596
  928ETO    ETO  958   1.292   4.412   0.409  0.0104 -0.0606 -0.0086
  929ETO    ETO  959   4.953   2.309   3.734 -0.4633 -0.0115  0.1216
  930ETO    ETO  960   0.243   1.381   4.641  0.1887  0.2150  0.0485
  931ETO    ETO  961   1.939   2.184   4.325 -0.3188  0.1138  0.1430
  932ETO    ETO  962   2.439   5.111   3.031  0.2210 -0.2966  0.1807
  933ETO    ETO  963   4.689   5.008   3.815  0.0765 -0.0680  0.3239
  934ETO    ETO  964   1.091   1.465   0.293 -0.1786 -0.0269 -0.3983
  935ETO    ETO  965   5.365   1.733   2.623  0.0482  0.1749 -0.0523
  936ETO    ETO  966   0.309   0.746   3.087 -0.3403 -0.3152  0.3997
  937ETO    ETO  967   2.022   0.410   1.979  0.0835  0.1060  0.1434
  938ETO    ETO  968   4.150   2.341   2.984  0.2181  0.0341  0.5082
  939ETO    ETO  969   4.962   0.925   0.594  0.1388 -0.0175  0.0544
  940ETO    ETO  970   3.719   2.888   0.521 -0.1027  0.1106  0.0040
  941ETO    ETO  971   0.817   2.075   0.112 -0.2654 -0.0095 -0.3194
  942ETO    ETO  972   5.675   4.223   5.324  0.3450 -0.1289 -0.2078
  943ETO    ETO  973   0.087   4.063   3.439 -0.2420  0.2800  0.1468
  944ETO    ETO  974   1.797   1.903   1.072 -0.5346  0.1710 -0.0899
  945ETO    ETO  975   4.312   5.360   1.726 -0.3140 -0.0703 -0.2920
  946ETO    ETO  976   3.523   5.073   2.369  0.0937 -0.2827  0.0716
  947ETO    ETO  977   4.964   2.902   1.850  0.1545 -0.2558 -0.1099
  948ETO    ETO  978   0.572   3.709   1.495  0.1609  0.0073 -0.3055
  949ETO    ETO  979   0.017   4.120   1.353  0.1429 -0.0323 -0.0130
  950ETO    ETO  980   3.129   5.189   4.963 -0.1361  0.2762 -0.1305
  951ETO    ETO  981   2.427   4.174   5.511  0.0229 -0.2976  0.1931
  952ETO    ETO  982   2.971   3.642   2.588  0.2286  0.1297  0.2690
  953ETO    ETO  983   2.073   1.162   1.732  0.0901  0.1325 -0.0068
  954ETO    ETO  984   4.156   2.268   0.852 -0.2017  0.0899 -0.3700
  955ETO    ETO  985   1.032   0.779   5.158 -0.1341 -0.0904 -0.1152
  956ETO    ETO  986   0.766   0.699   2.170  0.2994  0.0159  0.0015
  957ETO    ETO  987   3.785   0.629   5.693 -0.2764  0.0269 -0.1766
  958ETO    ETO  988   2.086   0.678   4.381 -0.1867  0.1217  0.4804
  959ETO    ETO  989   1.415   5.441   1.670 -0.1517 -0.1541  0.0746
  960ETO    ETO  990   0.403   3.918   1.192 -0.0880  0.3500 -0.2206
  961ETO    ETO  991   4.740   1.939   1.206 -0.1274 -0.0177 -0.2079
  962ETO    ETO  992   2.689   3.908   0.020 -0.1330  0.1583 -0.0922
  963ETO    ETO  993   0.453   1.642   5.489 -0.3067 -0.0230 -0.3273
  964ETO    ETO  994   1.560   1.531   0.218 -0.1655 -0.0119 -0.0453
  965ETO    ETO  995   1.230   4.830   0.044 -0.1490 -0.3172 -0.0849
  966ETO    ETO  996   4.324   0.121   2.304 -0.0520 -0.2078 -0.1467
  967ETO    ETO  997   3.033   2.473   0.984 -0.0259  0.2985 -0.0452
  968ETO    ETO  998   1.955   2.521   0.225  0.1732 -0.0045 -0.0769
  969ETO    ETO  999   2.435   3.931   4.678  0.1118  0.4020  0.0384
  970ETO    ETO 1000   0.964   3.234   1.236 -0.1838  0.1214  0.1853
  971ETO    ETO 1001   0.628   1.176   4.930  0.0617  0.0412  0.2622
  972ETO    ETO 1002   0.859   2.389   2.145  0.1293  0.3314 -0.0300
  973ETO    ETO 1003   4.176   5.254   2.640  0.2688  0.0003 -0.0454
  974ETO    ETO 1004   0.162   1.257   0.526 -0.0486 -0.4105 -0.0182
  975ETO    ETO 1005   5.015   2.916   2.292 -0.2745 -0.1880  0.2588
  976ETO    ETO 1006   1.401   2.429   3.547 -0.0888 -0.1433  0.1327
  977ETO    ETO 1007   1.473   3.198   1.188  0.0396  0.2138  0.0371
  978ETO    ETO 1008   2.902   0.069   0.138 -0.2126  0.1455 -0.0923
  979ETO    ETO 1009   0.471   1.028   4.441 -0.1969 -0.1014 -0.0556
  980ETO    ETO 1010   2.440   5.541   0.292  0.0704 -0.1977  0.3228
  981ETO    ETO 1011   4.785   5.154   2.989 -0.1476 -0.1032 -0.0332
  982ETO    ETO 1012   5.268   4.458   4.690  0.0229  0.0957 -0.0176
  983ETO    ETO 1013   5.108   5.183   4.607 -0.3294  0.0827 -0.0927
  984ETO    ETO 1014   3.611   3.708   5.293  0.0833 -0.1482  0.7162
  985ETO    ETO 1015   5.635   5.040   3.906  0.0421  0.1324 -0.2395
  986ETO    ETO 1016   4.794   2.670   0.965  0.0639 -0.0614 -0.5268
  987ETO    ETO 1017   3.180   3.243   2.683 -0.4022  0.0363 -0.0096
  988ETO    ETO 1018   5.193   2.049   2.099 -0.1407  0.0431  0.4788
  989ETO    ETO 1019   5.524   1.290   0.720 -0.0028 -0.1218 -0.2763
  990ETO    ETO 1020   3.249   0.431   1.369  0.1926  0.1634  0.4317
  991ETO    ETO 1021   0.294   0.085   2.573 -0.0658  0.0906 -0.2433
  992ETO    ETO 1022   4.453   4.105   2.223 -0.0294  0.1547 -0.3708
  993ETO    ETO 1023   4.203   4.822   3.233  0.0601 -0.1574  0.2432
  994ETO    ETO 1024   4.830   1.789   3.405 -0.1005 -0.0857 -0.1602
  995ETO    ETO 1025   5.046   2.324   5.279  0.0206  0.1499 -0.0592
  996ETO    ETO 1026   0.277   5.262   1.387 -0.0090  0.2008  0.0614
  997ETO    ETO 1027   1.166   2.503   3.128 -0.2417  0.0580 -0.0350
  998ETO    ETO 1028   4.141   3.506   3.780 -0.0211  0.0885  0.3345
  999ETO    ETO 1029   1.879   4.527   1.018 -0.1314  0.0443 -0.1802
 1000ETO    ETO 1030   3.999   3.960   3.572 -0.4087  0.2970  0.0828
 1001ETO    ETO 1031   2.690   1.338   0.653 -0.1361 -0.0677 -0.1836
 1002ETO    ETO 1032   4.783   5.533   3.726 -0.1724 -0.1059 -0.0881
 1003ETO    ETO 1033   0.576   1.415   0.372 -0.4760 -0.2446  0.1144
 1004ETO    ETO 1034   0.286   0.674   4.623 -0.4232  0.2041  0.0164
 1005ETO    ETO 1035   1.123   2.334   4.185 -0.1358 -0.0121  0.2397
 1006ETO    ETO 1036   4.533   3.217   5.204  0.0760 -0.1826 -0.2362
 1007ETO    ETO 1037   2.126   1.201   5.650  0.0434 -0.2707 -0.0157
 1008ETO    ETO 1038   0.677   4.986   1.297 -0.3169 -0.0441  0.3402
 1009ETO    ETO 1039   2.228   4.850   1.905 -0.0065 -0.0772  0.2335
 1010ETO    ETO 1040   3.924   0.551   0.450  0.2503  0.2023  0.0737
 1011ETO    ETO 1041   5.713   0.018   3.860  0.0273 -0.0245  0.2013
 1012ETO    ETO 1042   0.541   0.207   4.070  0.1185  0.1148  0.0753
 1013ETO    ETO 1043   4.846   5.404   2.273 -0.2397  0.0364  0.2382
 1014ETO    ETO 1044   0.247   5.322   3.996 -0.4885 -0.1896  0.1166
 1015ETO    ETO 1045   3.389   3.846   3.434 -0.1536  0.0447 -0.1375
 1016ETO    ETO 1046   2.082   0.579   0.593 -0.2501  0.3912 -0.1725
 1017ETO    ETO 1047   3.269   0.916   1.268  0.1461 -0.2242 -0.0413
 1018ETO    ETO 1048   3.833   4.528   1.955  0.1715  0.0795  0.0926
 1019ETO    ETO 1049   2.592   2.065   2.454  0.2728  0.1697  0.1547
 1020ETO    ETO 1050   2.651   0.369   2.822 -0.0051  0.2809  0.1753
 1021ETO    ETO 1051   1.985   5.603   3.865  0.1489 -0.1393 -0.3995
 1022ETO    ETO 1052   5.201   4.680   1.276  0.1512  0.1277 -0.1859
 1023ETO    ETO 1053   4.157   4.177   4.193 -0.1882  0.0025  0.0502
 1024ETO    ETO 1054   1.771   1.938   3.195 -0.0062 -0.3803  0.2296
 1025ETO    ETO 1055   4.809   4.447   3.391  0.1845 -0.0734 -0.1109
 1026ETO    ETO 1056   3.342   0.882   2.083 -0.0645  0.0476 -0.1309
 1027ETO    ETO 1057   1.187   3.509   1.406 -0.0721  0.1413  0.0894
 1028ETO    ETO 1058   0.116   4.972   5.439  0.1551  0.3087 -0.0319
 1029ETO    ETO 1059   4.815   4.174   1.377 -0.5494  0.3361  0.0725
 1030ETO    ETO 1060   4.780   2.105   4.928  0.3776 -0.1300 -0.1526
 1031ETO    ETO 1061   1.071   5.067   3.441  0.0188  0.1185  0.3008
 1032ETO    ETO 1062   1.405   3.876   1.839 -0.0329  0.1172  0.0017
 1033ETO    ETO 1063   4.214   3.268   1.985  0.2106 -0.3276 -0.0410
 1034ETO    ETO 1064   2.244   3.982   2.944  0.2229 -0.1140 -0.4394
 1035ETO    ETO 1065   5.175   5.512   0.005  0.3319 -0.1579 -0.3447
 1036ETO    ETO 1066   0.394   3.464   3.052 -0.0496 -0.2998  0.0861
 1037ETO    ETO 1067   0.902   3.552   3.429 -0.4173  0.0931  0.0898
 1038ETO    ETO 1068   0.603   2.205   0.521 -0.2270  0.2473  0.1415
 1039ETO    ETO 1069   1.494   3.036   3.978 -0.2622 -0.2316  0.1152
 1040ETO    ETO 1070   1.683   2.047   4.930  0.3739  0.4745  0.1538
 1041ETO    ETO 1071   0.996   3.985   2.159 -0.1709 -0.2134  0.4404
 1042ETO    ETO 1072   5.540   3.130   4.406 -0.2103  0.0249 -0.0002
 1043ETO    ETO 1073   2.925   4.292   0.593 -0.0870  0.0806 -0.3389
 1044ETO    ETO 1074   5.314   0.521   3.524  0.0030  0.2226  0.1523
 1045ETO    ETO 1075   4.295   1.305   5.651  0.1495  0.0132 -0.2813
 1046ETO    ETO 1076   0.321   1.940   3.487  0.0271  0.2822 -0.3014
 1047ETO    ETO 1077   2.914   5.176   1.381  0.0624 -0.2453  0.2972
 1048ETO    ETO 1078   4.814   5.134   4.232 -0.4897  0.0960  0.1583
 1049ETO    ETO 1079   4.184   3.697   1.721 -0.1820 -0.1635  0.2809
 1050ETO    ETO 1080   2.041   5.576   4.436  0.0081 -0.0378 -0.0697
 1051ETO    ETO 1081   1.594   4.582   0.121  0.0229  0.4681  0.2905
 1052ETO    ETO 1082   2.905   4.250   3.909 -0.0145 -0.0563 -0.3140
 1053ETO    ETO 1083   1.758   4.116   2.701  0.1180  0.4486 -0.1492
 1054ETO    ETO 1084   2.756   1.289   3.500 -0.1492 -0.0156  0.0623
 1055ETO    ETO 1085   4.637   1.698   5.219  0.3027  0.1161  0.1257
 1056ETO    ETO 1086   4.418   1.380   4.488 -0.1628 -0.0423 -0.1655
 1057ETO    ETO 1087   3.862   0.408   1.873  0.0888  0.4560  0.0839
 1058ETO    ETO 1088   0.196   2.467   1.121 -0.0152 -0.4475 -0.3012
 1059ETO    ETO 1089   0.526   4.789   5.535 -0.2539  0.1888  0.2268
 1060ETO    ETO 1090   4.909   2.720   5.001 -0.0529  0.1716  0.0930
 1061ETO    ETO 1091   2.117   0.194   0.919  0.3804 -0.0960  0.2449
 1062ETO    ETO 1092   4.769   0.268   2.953  0.0611 -0.3511  0.2199
 1063ETO    ETO 1093   0.651   2.366   4.104  0.0195 -0.0252 -0.1210
 1064ETO    ETO 1094   0.449   3.059   5.693  0.2883  0.2201 -0.0832
 1065ETO    ETO 1095   0.149   1.524   5.174  0.2792 -0.1669  0.2748
 1066ETO    ETO 1096   4.307   0.530   0.684  0.0621 -0.1118  0.1682
 1067ETO    ETO 1097   1.250   3.186   1.695  0.0785 -0.0097 -0.1597
 1068ETO    ETO 1098   2.992   0.010   5.202  0.2051 -0.0925  0.0892
 1069ETO    ETO 1099   5.059   2.078   2.651  0.1357 -0.3697 -0.1047
 1070ETO    ETO 1100   4.633   4.346   4.421 -0.0567 -0.1240  0.2818
 1071ETO    ETO 1101   3.801   4.012   1.840  0.2377 -0.1647 -0.4856
 1072ETO    ETO 1102   3.519   2.648   0.198  0.1779 -0.0668 -0.1996
 1073ETO    ETO 1103   0.927   1.541   5.260  0.2549  0.2083 -0.2755
 1074ETO    ETO 1104   3.292   5.453   1.807 -0.0536 -0.0760 -0.2340
 1075ETO    ETO 1105   3.159   0.478   2.366  0.0030  0.0841  0.1427
 1076ETO    ETO 1106   5.154   1.512   1.416 -0.1415  0.0997  0.0389
 1077ETO    ETO 1107   4.140   0.528   2.213  0.2004  0.2247 -0.0366
 1078ETO    ETO 1108   3.052   2.843   2.672  0.0849 -0.3018 -0.0707
 1079ETO    ETO 1109   5.351   0.436   1.864  0.1484 -0.0569  0.1041
 1080ETO    ETO 1110   1.564   4.829   5.540  0.2323  0.0292 -0.0471
 1081ETO    ETO 1111   2.978   4.428   1.073  0.1630  0.5773 -0.1006
 1082ETO    ETO 1112   4.884   0.719   3.481  0.1183 -0.2216  0.1972
 1083ETO    ETO 1113   5.663   3.816   4.952 -0.3750 -0.1180  0.0095
 1084ETO    ETO 1114   3.738   2.824   3.270 -0.0981  0.0071 -0.1651
 1085ETO    ETO 1115   4.745   1.050   2.895  0.0624 -0.1927 -0.0628
 1086ETO    ETO 1116   5.294   3.754   5.268 -0.0317 -0.0529  0.3562
 1087ETO    ETO 1117   5.608   1.264   4.904  0.1387 -0.2427  0.0803
 1088ETO    ETO 1118   4.036   1.218   4.285  0.3846  0.1519 -0.0753
 1089ETO    ETO 1119   1.891   2.645   4.183 -0.3096 -0.0175 -0.2170
 1090ETO    ETO 1120   1.752   0.713   1.695 -0.1101 -0.1427 -0.0669
 1091ETO    ETO 1121   2.894   5.604   4.835  0.2731 -0.3959  0.3271
 1092ETO    ETO 1122   3.369   2.023   2.910 -0.1163  0.0158 -0.2003
 1093ETO    ETO 1123   0.587   4.838   2.471  0.2331  0.0995 -0.1303
 1094ETO    ETO 1124   2.450   0.161   3.723  0.0571 -0.2042  0.3706
 1095ETO    ETO 1125   4.998   0.926   3.843 -0.0002 -0.2476  0.1498
 1096ETO    ETO 1126   3.229   2.359   1.605  0.2222  0.0707  0.0702
 1097ETO    ETO 1127   1.686   4.112   4.974 -0.0199  0.0391  0.2906
 1098ETO    ETO 1128   3.212   1.074   3.590 -0.2482 -0.0848  0.0275
 1099ETO    ETO 1129   4.449   3.701   5.501 -0.0715  0.4873 -0.1959
 1100ETO    ETO 1130   5.101   1.075   4.219  0.7097 -0.1225  0.0500
 1101ETO    ETO 1131   4.270   5.155   3.470 -0.0959 -0.2641 -0.1300
 1102ETO    ETO 1132   4.694   5.710   5.284 -0.0568  0.2738 -0.0619
 1103ETO    ETO 1133   2.866   0.713   2.663  0.1204  0.1295 -0.1694
 1104ETO    ETO 1134   4.970   5.554   4.851  0.2361 -0.2612 -0.3363
 1105ETO    ETO 1135   3.651   1.471   5.214  0.0159 -0.0554 -0.0968
 1106ETO    ETO 1136   0.641   3.318   4.960 -0.1261  0.1361  0.0360
 1107ETO    ETO 1137   2.961   0.161   1.098 -0.2261 -0.2556 -0.1402
 1108ETO    ETO 1138   2.178   2.849   0.328 -0.4137  0.3554 -0.0338
 1109ETO    ETO 1139   4.951   3.840   4.400  0.6448  0.2106  0.0598
 1110ETO    ETO 1140   0.082   0.060   3.009 -0.4006  0.4157 -0.0293
 1111ETO    ETO 1141   0.901   2.708   4.220  0.0447 -0.3679 -0.1673
 1112ETO    ETO 1142   1.225   3.981   5.015  0.0597  0.1259 -0.1651
 1113ETO    ETO 1143   0.264   1.209   0.959 -0.1454  0.1542 -0.0314
 1114ETO    ETO 1144   4.067   1.203   2.145 -0.4121 -0.0576 -0.1107
 1115ETO    ETO 1145   3.444   2.239   2.020 -0.1403 -0.2098  0.1963
 1116ETO    ETO 1146   0.894   2.518   3.790  0.2515  0.0413  0.0852
 1117ETO    ETO 1147   3.002   2.182   5.196 -0.2919 -0.3959  0.0959
 1118ETO    ETO 1148   5.555   0.534   5.645 -0.1742  0.1703 -0.3154
 1119ETO    ETO 1149   4.532   4.506   1.574  0.1363  0.1166 -0.1139
 1120ETO    ETO 1150   5.666   4.544   3.277 -0.0882 -0.1294  0.3032
 1121ETO    ETO 1151   1.721   5.007   3.569  0.0752  0.0213 -0.5301
 1122ETO    ETO 1152   0.328   3.444   2.043 -0.2879  0.1798  0.2889
 1123ETO    ETO 1153   4.063   5.237   4.590  0.3975 -0.1968 -0.0790
 1124ETO    ETO 1154   2.927   0.406   3.153 -0.4298  0.0722 -0.0836
 1125ETO    ETO 1155   2.175   0.865   2.097 -0.2389 -0.1927 -0.2553
 1126ETO    ETO 1156   1.910   4.106   4.268 -0.2135 -0.1201 -0.0074
 1127ETO    ETO 1157   2.504   2.708   1.352  0.1516 -0.0330 -0.0224
 1128ETO    ETO 1158   1.265   4.099   2.559 -0.1727  0.5596 -0.1666
 1129ETO    ETO 1159   3.945   2.492   3.423 -0.3970 -0.3721 -0.0178
 1130ETO    ETO 1160   4.002   5.680   4.884  0.1477  0.4065 -0.0827
 1131ETO    ETO 1161   4.340   4.379   0.109 -0.0749  0.1579  0.0855
 1132ETO    ETO 1162   4.282   5.016   1.513  0.2941 -0.0670  0.1825
 1133ETO    ETO 1163   2.935   2.798   0.703 -0.2504  0.2243 -0.0027
 1134ETO    ETO 1164   1.018   1.285   4.875  0.1079  0.0304 -0.1877
 1135ETO    ETO 1165   2.645   4.438   0.221 -0.1125 -0.3200 -0.1473
 1136ETO    ETO 1166   1.944   4.059   1.502  0.3120  0.6852  0.0906
 1137ETO    ETO 1167   0.734   4.699   3.518  0.8240 -0.1539 -0.1123
 1138ETO    ETO 1168   5.478   3.163   2.349  0.1720  0.1292 -0.2051
 1139ETO    ETO 1169   0.267   4.311   0.981 -0.0986 -0.1345 -0.0146
 1140ETO    ETO 1170   3.753   5.384   1.834  0.1178 -0.2020  0.0502
 1141ETO    ETO 1171   0.825   3.371   2.713  0.1581 -0.0597  0.0280
 1142ETO    ETO 1172   1.270   4.285   3.951  0.3129 -0.0935 -0.0844
 1143ETO    ETO 1173   5.662   1.060   3.082 -0.0986  0.1199 -0.1733
 1144ETO    ETO 1174   3.462   0.693   4.927  0.2447 -0.0530  0.2426
 1145ETO    ETO 1175   5.499   5.215   0.572 -0.2449  0.0776  0.2596
 1146ETO    ETO 1176   1.923   4.990   4.484 -0.0344  0.0386 -0.4629
 1147ETO    ETO 1177   2.176   3.413   5.737 -0.5475  0.3463 -0.1459
 1148ETO    ETO 1178   1.169   4.634   3.638 -0.2762  0.1096  0.0788
 1149ETO    ETO 1179   5.132   4.639   3.859  0.3047 -0.0316  0.1362
 1150ETO    ETO 1180   2.501   4.275   1.436 -0.0970  0.0949 -0.3358
 1151ETO    ETO 1181   0.372   4.842   5.099 -0.1185 -0.2219 -0.0565
 1152ETO    ETO 1182   4.473   4.457   0.573 -0.0722  0.1407 -0.1527
 1153ETO    ETO 1183   0.455   2.523   4.489  0.2620 -0.0586  0.0238
 1154ETO    ETO 1184   1.771   0.974   0.426  0.0139 -0.1189  0.1115
 1155ETO    ETO 1185   5.238   1.985   3.936 -0.0470  0.1036  0.2535
 1156ETO    ETO 1186   4.167   3.015   1.559 -0.0265 -0.0902  0.2423
 1157ETO    ETO 1187   1.963   1.882   5.285 -0.0348 -0.0398  0.2965
 1158ETO    ETO 1188   5.518   1.509   3.569  0.1400  0.3659 -0.2013
 1159ETO    ETO 1189   2.039   3.911   5.385  0.2447 -0.2343 -0.1744
 1160ETO    ETO 1190   0.641   4.504   0.217 -0.1835 -0.2123 -0.4290
 1161ETO    ETO 1191   3.635   4.673   5.191  0.3432 -0.3085 -0.2638
 1162ETO    ETO 1192   2.129   4.930   5.028 -0.0238  0.0438 -0.0760
 1163ETO    ETO 1193   2.778   1.581   1.544  0.0117  0.3423 -0.2972
 1164ETO    ETO 1194   2.048   3.030   2.124  0.1042  0.1694  0.2223
 1165ETO    ETO 1195   2.407   3.204   0.320 -0.2494  0.1006  0.2687
 1166ETO    ETO 1196   1.279   1.475   5.581  0.0198  0.0471  0.4361
 1167ETO    ETO 1197   0.832   5.604   4.691 -0.0667 -0.0226 -0.0665
 1168ETO    ETO 1198   0.427   0.480   2.318 -0.0892  0.1116 -0.2113
 1169ETO    ETO 1199   1.864   0.263   3.087 -0.3930 -0.2420 -0.1339
 1170ETO    ETO 1200   3.235   4.275   4.695 -0.1583  0.1774  0.5259
 1171ETO    ETO 1201   4.075   0.285   3.135 -0.0348 -0.4022  0.0171
 1172ETO    ETO 1202   5.619   3.417   1.975  0.5223  0.2934  0.0616
 1173ETO    ETO 1203   5.065   2.412   0.127 -0.1414 -0.0139 -0.3093
 1174ETO    ETO 1204   1.236   4.720   4.276  0.1892  0.1169 -0.0580
 1175ETO    ETO 1205   4.202   1.740   5.436  0.0586 -0.0591  0.1823
 1176ETO    ETO 1206   3.155   1.385   5.432 -0.0851  0.1789  0.0965
 1177ETO    ETO 1207   1.029   3.924   1.555 -0.1091  0.3662  0.1236
 1178ETO    ETO 1208   4.813   2.365   4.595  0.0985 -0.3821  0.2134
 1179ETO    ETO 1209   1.040   1.091   0.806  0.4168  0.1716  0.1094
 1180ETO    ETO 1210   2.567   5.408   5.020 -0.1956 -0.0989 -0.0787
 1181ETO    ETO 1211   4.741   1.798   2.467  0.3696 -0.2441  0.1741
 1182ETO    ETO 1212   5.370   0.867   4.742 -0.0480 -0.3198  0.0943
 1183ETO    ETO 1213   4.421   1.505   1.108  0.1840 -0.4414  0.0292
 1184ETO    ETO 1214   0.187   2.755   3.048 -0.0730  0.0063 -0.3607
 1185ETO    ETO 1215   4.762   2.075   0.493 -0.1363  0.4456  0.0275
 1186ETO    ETO 1216   4.694   1.695   2.036 -0.1081 -0.2984 -0.2622
 1187ETO    ETO 1217   2.377   2.714   3.934  0.3204  0.2114 -0.0060
 1188ETO    ETO 1218   1.047   3.954   4.178 -0.1029  0.2324 -0.0098
 1189ETO    ETO 1219   3.492   5.454   4.245  0.0275 -0.0699  0.1598
 1190ETO    ETO 1220   4.065   0.770   4.957  0.1670 -0.2842  0.2274
 1191ETO    ETO 1221   3.643   2.610   1.924 -0.2039 -0.0434 -0.1307
 1192ETO    ETO 1222   1.865   0.091   1.241  0.1989  0.0014 -0.0079
 1193ETO    ETO 1223   4.203   2.194   4.210 -0.1839 -0.3164  0.0431
 1194ETO    ETO 1224   0.147   1.007   4.947  0.4016  0.0536  0.0055
 1195ETO    ETO 1225   5.283   3.383   4.917  0.4495  0.1281  0.1438
 1196ETO    ETO 1226   0.974   5.312   5.710 -0.3732 -0.0947 -0.0588
 1197ETO    ETO 1227   1.525   0.867   2.390  0.1523 -0.2852  0.1211
 1198ETO    ETO 1228   2.863   2.876   5.356 -0.1628  0.1347 -0.1714
 1199ETO    ETO 1229   1.792   2.277   0.759 -0.1458  0.0657  0.0066
 1200ETO    ETO 1230   1.093   1.767   3.070 -0.1807  0.6207 -0.0422
 1201ETO    ETO 1231   1.195   0.793   0.447  0.0512  0.0682 -0.2994
 1202ETO    ETO 1232   0.979   4.725   0.473  0.3530  0.2593 -0.1828
 1203ETO    ETO 1233   1.041   4.936   5.395 -0.0360 -0.1833  0.0958
 1204ETO    ETO 1234   2.185   4.273   1.132  0.1641 -0.3103  0.1660
 1205ETO    ETO 1235   1.219   5.485   4.257 -0.7026 -0.1900 -0.0491
 1206ETO    ETO 1236   2.739   5.177   3.305  0.5188 -0.0633 -0.0400
 1207ETO    ETO 1237   2.480   2.298   0.520  0.1561 -0.1504 -0.2038
 1208ETO    ETO 1238   0.110   5.146   4.911  0.3050 -0.2366 -0.0552
 1209ETO    ETO 1239   0.282   3.203   3.363  0.3703  0.0751  0.0752
 1210ETO    ETO 1240   4.747   4.087   4.081 -0.0689  0.4616 -0.0951
 1211ETO    ETO 1241   5.500   4.237   0.039  0.0431  0.1390 -0.2048
 1212ETO    ETO 1242   4.247   0.792   5.339 -0.2789  0.0818  0.5120
 1213ETO    ETO 1243   4.882   3.687   5.358 -0.2187  0.0591  0.2316
 1214ETO    ETO 1244   5.582   3.949   2.664  0.2481  0.3431  0.0283
 1215ETO    ETO 1245   3.049   5.530   3.933 -0.2389  0.1084 -0.2049
 1216ETO    ETO 1246   1.390   3.515   5.299 -0.1224  0.5157  0.0624
 1217ETO    ETO 1247   1.464   4.806   2.239 -0.4848  0.1278  0.0867
 1218ETO    ETO 1248   0.642   0.111   0.750  0.1217  0.0642 -0.0890
 1219ETO    ETO 1249   3.323   3.000   3.219 -0.1623 -0.4320  0.0047
 1220ETO    ETO 1250   0.298   3.050   2.236  0.0320  0.2918 -0.2669
 1221ETO    ETO 1251   1.840   1.373   3.465  0.2821  0.1914 -0.2500
 1222ETO    ETO 1252   2.157   1.991   4.892  0.3781 -0.0656  0.0283
 1223ETO    ETO 1253   3.182   4.776   1.519 -0.1486  0.3328  0.0516
 1224ETO    ETO 1254   5.257   2.600   0.860 -0.5770 -0.1952  0.1171
 1225ETO    ETO 1255   2.855   1.710   5.443  0.0374  0.0753  0.1753
 1226ETO    ETO 1256   0.976   0.293   0.590  0.0914 -0.2334 -0.0673
 1227ETO    ETO 1257   5.389   2.691   4.822 -0.1768  0.3159  0.0953
 1228ETO    ETO 1258   1.381   3.047   4.834  0.1982 -0.1213  0.2277
 1229ETO    ETO 1259   0.782   2.442   2.917 -0.1225 -0.4303  0.4129
 1230ETO    ETO 1260   5.316   4.436   3.469  0.2878 -0.1518 -0.1465
 1231ETO    ETO 1261   2.853   0.330   5.370 -0.0568 -0.0304 -0.1501
 1232ETO    ETO 1262   3.808   2.731   1.542  0.1447 -0.4841  0.1882
 1233ETO    ETO 1263   4.922   2.738   3.138 -0.1202  0.2575 -0.3052
 1234ETO    ETO 1264   0.239   4.472   1.410  0.0546 -0.0621 -0.1209
 1235ETO    ETO 1265   0.386   1.183   3.052 -0.2071  0.1267  0.2853
 1236ETO    ETO 1266   3.113   4.099   4.255  0.0353  0.0769  0.0616
 1237ETO    ETO 1267   4.708   0.251   2.129 -0.0633 -0.1724  0.0939
 1238ETO    ETO 1268   1.904   0.854   0.889 -0.1197  0.1580 -0.0040
 1239ETO    ETO 1269   2.808   5.224   5.321 -0.0659 -0.0652 -0.1966
 1240ETO    ETO 1270   1.629   1.766   2.822  0.0918 -0.0728  0.2918
 1241ETO    ETO 1271   1.970   4.536   0.340 -0.1449 -0.1745 -0.3505
 1242ETO    ETO 1272   5.116   4.462   2.006  0.1292  0.2225 -0.1151
 1243ETO    ETO 1273   2.947   0.929   3.275  0.0879 -0.0617  0.1181
 1244ETO    ETO 1274   1.547   4.302   0.865  0.0228  0.0231 -0.0700
 1245ETO    ETO 1275   1.488   1.628   4.539 -0.2478 -0.2183 -0.0077
 1246ETO    ETO 1276   4.187   5.586   5.449 -0.1749 -0.0128  0.3237
 1247ETO    ETO 1277   3.674   2.815   3.741 -0.2508  0.0806  0.0209
 1248ETO    ETO 1278   3.529   0.356   0.245  0.1527 -0.3385 -0.1228
 1249ETO    ETO 1279   3.265   3.050   5.046  0.0858 -0.0863 -0.3766
 1250ETO    ETO 1280   0.315   0.076   5.526 -0.0672 -0.0672 -0.1102
 1251ETO    ETO 1281   2.001   4.696   5.529 -0.1295 -0.2436  0.4257
 1252ETO    ETO 1282   1.774   1.413   1.129 -0.2998 -0.0754  0.2168
 1253ETO    ETO 1283   0.800   4.087   3.095 -0.1736  0.3145  0.1096
 1254ETO    ETO 1284   4.829   2.952   0.681 -0.1875 -0.1687  0.2638
 1255ETO    ETO 1285   1.980   2.075   2.312 -0.1709 -0.4469 -0.2334
 1256ETO    ETO 1286   3.095   2.972   5.675 -0.0863  0.2717  0.2595
 1257ETO    ETO 1287   0.444   0.030   5.089 -0.0415  0.2907  0.0390
 1258ETO    ETO 1288   1.156   4.295   1.709 -0.0197  0.1557 -0.2137
 1259ETO    ETO 1289   2.884   3.105   3.019  0.1900  0.1026 -0.0871
 1260ETO    ETO 1290   1.830   3.256   5.000  0.3065 -0.0411  0.3309
 1261ETO    ETO 1291   3.895   4.487   2.858  0.4077 -0.1060 -0.0073
 1262ETO    ETO 1292   0.008   4.588   4.040  0.0341 -0.3965  0.3729
 1263ETO    ETO 1293   2.901   2.024   3.818 -0.4378 -0.1362 -0.2896
 1264ETO    ETO 1294   1.678   3.782   3.230 -0.0137 -0.1690 -0.0645
 1265ETO    ETO 1295   5.718   2.506   4.440  0.1255  0.0873  0.0057
 1266ETO    ETO 1296   2.202   3.323   4.378  0.1243 -0.1738  0.0775
 1267ETO    ETO 1297   3.475   1.170   4.562 -0.2698 -0.3434 -0.0243
 1268ETO    ETO 1298   2.815   2.579   1.650  0.0486  0.0837 -0.0936
 1269ETO    ETO 1299   0.771   4.557   4.015  0.2186  0.0310  0.2077
 1270ETO    ETO 1300   4.568   3.004   1.430  0.3089 -0.3354  0.0005
 1271ETO    ETO 1301   3.724   3.823   0.863 -0.1915  0.1824  0.0886
 1272ETO    ETO 1302   5.012   3.264   4.591 -0.0926  0.0826  0.1185
 1273ETO    ETO 1303   2.120   2.156   2.949  0.0101  0.6309 -0.0403
 1274ETO    ETO 1304   0.726   5.012   2.069 -0.0819  0.5620 -0.0133
 1275ETO    ETO 1305   0.852   1.186   4.376  0.2126 -0.0185 -0.0062
 1276ETO    ETO 1306   4.918   0.529   1.160  0.1915  0.2662  0.0185
 1277ETO    ETO 1307   0.469   0.523   3.695 -0.1657  0.1789 -0.3939
 1278ETO    ETO 1308   3.771   4.256   1.329 -0.2214 -0.3488 -0.1002
 1279ETO    ETO 1309   2.384   5.495   3.201  0.2874  0.0540  0.0845
 1280ETO    ETO 1310   1.726   1.383   0.695  0.4247  0.0471  0.4235
 1281ETO    ETO 1311   3.271   0.110   2.119  0.1154  0.0872  0.0660
 1282ETO    ETO 1312   0.490   4.307   3.606  0.4376 -0.2431  0.1122
 1283ETO    ETO 1313   3.156   2.087   4.776  0.0069 -0.1594 -0.4205
 1284ETO    ETO 1314   5.559   5.397   4.689 -0.0798 -0.0385 -0.2749
 1285ETO    ETO 1315   0.088   1.766   2.507  0.2480  0.0135 -0.2221
 1286ETO    ETO 1316   5.590   1.780   3.851  0.0563 -0.2023 -0.1345
 1287ETO    ETO 1317   2.593   4.787   4.794 -0.4769  0.1964  0.2537
 1288ETO    ETO 1318   3.149   5.421   2.787  0.0997  0.1362  0.1913
 1289ETO    ETO 1319   0.315   3.334   4.352 -0.1819  0.3863 -0.3071
 1290ETO    ETO 1320   0.169   4.312   0.404  0.0436  0.2857 -0.3084
 1291ETO    ETO 1321   1.002   2.069   2.727 -0.0658 -0.2191  0.5340
 1292ETO    ETO 1322   0.612   3.008   4.555  0.4927  0.0699  0.2788
 1293ETO    ETO 1323   2.878   2.721   3.874 -0.2513  0.2242  0.0921
 1294ETO    ETO 1324   2.350   4.682   2.547  0.0760 -0.1852  0.0625
 1295ETO    ETO 1325   5.586   2.393   0.747 -0.0758  0.0608 -0.0013
 1296ETO    ETO 1326   5.630   3.892   1.014  0.0973 -0.1873 -0.3748
 1297ETO    ETO 1327   5.064   2.522   2.396 -0.0594 -0.0455  0.1098
 1298ETO    ETO 1328   3.625   5.291   4.996  0.1781 -0.2343  0.1390
 1299ETO    ETO 1329   2.052   5.067   0.534 -0.1468 -0.1110  0.0436
 1300ETO    ETO 1330   1.838   3.048   4.252 -0.3896  0.4115 -0.1488
 1301ETO    ETO 1331   1.314   5.460   1.232  0.4166 -0.1349 -0.0778
 1302ETO    ETO 1332   4.329   0.287   1.874 -0.0397  0.2695 -0.1545
 1303ETO    ETO 1333   4.122   4.556   5.178  0.1311  0.0070  0.3517
 1304ETO    ETO 1334   5.259   0.901   5.171  0.2952  0.0261  0.0074
 1305ETO    ETO 1335   2.268   4.466   2.120 -0.1911  0.1907 -0.1120
 1306ETO    ETO 1336   3.870   2.709   2.857  0.0344  0.3560  0.3813
 1307ETO    ETO 1337   2.349   3.467   3.156 -0.2778 -0.1583 -0.2954
 1308ETO    ETO 1338   1.149   3.977   1.125  0.1244 -0.1011  0.1539
 1309ETO    ETO 1339   3.295   4.965   0.539 -0.0570 -0.0766 -0.0349
 1310ETO    ETO 1340   4.778   0.043   5.721 -0.2147  0.1877 -0.1013
 1311ETO    ETO 1341   5.682   2.814   0.162 -0.1772 -0.0896 -0.2172
 1312ETO    ETO 1342   0.276   5.470   3.325 -0.2126 -0.2092  0.0824
 1313ETO    ETO 1343   2.724   2.092   0.878 -0.0677 -0.0646  0.1208
 1314ETO    ETO 1344   5.253   1.384   0.067  0.0104  0.3055  0.4396
 1315ETO    ETO 1345   3.352   3.466   1.369 -0.0347  0.1246  0.1537
 1316ETO    ETO 1346   4.173   1.638   5.002  0.6249 -0.0689  0.1846
 1317ETO    ETO 1347   4.636   0.160   1.063 -0.2710  0.4648 -0.5096
 1318ETO    ETO 1348   1.633   0.089   5.686  0.1986 -0.4926 -0.0112
 1319ETO    ETO 1349   1.424   3.644   4.454  0.2221  0.0056 -0.0874
 1320ETO    ETO 1350   0.527   0.198   4.502 -0.2962 -0.2534 -0.0587
 1321ETO    ETO 1351   5.669   3.077   4.025 -0.1341 -0.1461  0.0843
 1322ETO    ETO 1352   3.515   0.845   2.661 -0.1430 -0.1057 -0.3552
 1323ETO    ETO 1353   0.822   4.902   0.068 -0.0405 -0.0841 -0.1213
 1324ETO    ETO 1354   1.258   1.099   0.075 -0.1154  0.4497  0.0815
 1325ETO    ETO 1355   1.235   2.650   5.498 -0.1655  0.2464  0.1936
 1326ETO    ETO 1356   5.536   2.947   5.288 -0.3747  0.0003 -0.0078
 1327ETO    ETO 1357   0.358   3.748   4.620  0.3340 -0.1439  0.0399
 1328ETO    ETO 1358   3.075   4.934   1.030  0.4167  0.2913 -0.2081
 1329ETO    ETO 1359   4.275   1.701   1.940 -0.0367 -0.0795  0.2692
 1330ETO    ETO 1360   5.125   3.282   5.371 -0.1002 -0.2555 -0.0707
 1331ETO    ETO 1361   0.487   4.365   2.379  0.1176  0.1270 -0.3933
 1332ETO    ETO 1362   2.794   3.441   1.919  0.0262 -0.0934 -0.2030
 1333ETO    ETO 1363   5.116   3.863   3.965 -0.0152 -0.2014 -0.2513
 1334ETO    ETO 1364   3.953   2.875   1.102 -0.2455 -0.3003 -0.0552
 1335ETO    ETO 1365   0.243   4.786   3.734 -0.2941 -0.0598 -0.5044
 1336ETO    ETO 1366   1.127   3.488   4.892 -0.0786 -0.3256 -0.0278
 1337ETO    ETO 1367   0.090   2.150   1.376 -0.2655  0.0483 -0.0768
 1338ETO    ETO 1368   4.743   0.687   3.035 -0.1941  0.0706 -0.0110
 1339ETO    ETO 1369   5.516   4.746   3.624 -0.1173  0.0138 -0.1445
 1340ETO    ETO 1370   1.282   5.341   0.240  0.0547 -0.0741 -0.1669
 1341ETO    ETO 1371   0.595   0.873   1.783  0.0697 -0.0538  0.2822
 1342ETO    ETO 1372   3.668   5.189   3.712  0.1925  0.0716 -0.0418
 1343ETO    ETO 1373   3.441   5.305   3.057 -0.2423  0.1209  0.1894
 1344ETO    ETO 1374   5.607   3.074   4.889 -0.4485 -0.2668 -0.0376
 1345ETO    ETO 1375   1.002   1.533   4.128  0.1297  0.1895  0.1278
 1346ETO    ETO 1376   0.151   5.149   3.053 -0.5010  0.0080  0.1239
 1347ETO    ETO 1377   1.783   5.241   2.362  0.2282  0.0392 -0.0380
 1348ETO    ETO 1378   4.736   3.405   2.856  0.4531 -0.2247  0.1092
 1349ETO    ETO 1379   4.296   0.070   1.349  0.2686  0.1372  0.0256
 1350ETO    ETO 1380   4.665   4.095   3.076  0.0399  0.2317  0.1219
 1351ETO    ETO 1381   1.037   2.016   1.296  0.1146  0.1250 -0.0466
 1352ETO    ETO 1382   3.504   0.780   0.495 -0.0855  0.2621 -0.1974
 1353ETO    ETO 1383   2.769   5.652   0.605  0.0362 -0.3993 -0.0382
 1354ETO    ETO 1384   2.610   4.030   0.403  0.0789 -0.1871  0.1331
 1355ETO    ETO 1385   5.281   1.105   1.522 -0.0021 -0.1002  0.0201
 1356ETO    ETO 1386   0.595   2.867   1.336  0.3593  0.1145 -0.1323
 1357ETO    ETO 1387   3.406   5.039   5.373  0.0829 -0.2054 -0.0924
 1358ETO    ETO 1388   4.410   2.304   2.644  0.0539 -0.3221  0.2285
 1359ETO    ETO 1389   5.158   3.810   0.465  0.1848 -0.4149 -0.1100
 1360ETO    ETO 1390   5.209   0.156   2.327 -0.0182 -0.2312 -0.0647
 1361ETO    ETO 1391   1.165   2.290   5.153 -0.0147  0.1085  0.0284
 1362ETO    ETO 1392   3.970   0.243   2.646 -0.0746 -0.0943 -0.0391
 1363ETO    ETO 1393   2.594   3.554   2.773 -0.0979  0.0608  0.4911
 1364ETO    ETO 1394   4.209   5.694   0.945 -0.3887  0.0658 -0.2020
 1365ETO    ETO 1395   1.116   0.051   0.034  0.3545  0.0657 -0.2827
 1366ETO    ETO 1396   1.251   4.635   0.808 -0.1124  0.4100 -0.1394
 1367ETO    ETO 1397   2.827   5.093   0.334 -0.4608  0.3175  0.2290
 1368ETO    ETO 1398   4.905   2.752   5.626  0.1726 -0.0799 -0.1213
 1369ETO    ETO 1399   2.517   2.986   3.607 -0.4558  0.0369  0.3125
 1370ETO    ETO 1400   3.589   0.351   0.657  0.1601 -0.4184  0.1498
 1371ETO    ETO 1401   4.736   4.599   1.072 -0.1351 -0.2890  0.0660
 1372ETO    ETO 1402   4.112   5.096   0.410  0.1407 -0.1871  0.2694
 1373ETO    ETO 1403   1.908   4.515   4.878 -0.3599  0.1901  0.1397
 1374ETO    ETO 1404   2.721   0.167   4.069  0.3676  0.1670 -0.3639
 1375ETO    ETO 1405   1.785   5.671   4.796 -0.3236 -0.0627  0.1189
 1376ETO    ETO 1406   4.211   1.156   2.662 -0.0796 -0.1037  0.0485
 1377ETO    ETO 1407   5.025   3.057   3.452  0.0620  0.2236  0.0059
 1378ETO    ETO 1408   5.506   3.128   2.747 -0.0052 -0.3112 -0.0769
 1379ETO    ETO 1409   2.384   1.123   4.762 -0.2844 -0.0626 -0.1364
 1380ETO    ETO 1410   2.857   2.032   0.205 -0.0072 -0.0646 -0.2438
 1381ETO    ETO 1411   0.357   1.577   2.804  0.0882 -0.0076 -0.2742
 1382ETO    ETO 1412   3.818   0.839   3.435 -0.1785  0.3437 -0.2559
 1383ETO    ETO 1413   1.382   3.511   0.261  0.1424 -0.1275 -0.1052
 1384ETO    ETO 1414   0.768   1.638   2.707  0.5048 -0.1373 -0.1940
 1385ETO    ETO 1415   4.258   2.812   5.068  0.2477  0.1035 -0.1033
 1386ETO    ETO 1416   5.320   1.595   4.136  0.2403 -0.2517  0.1684
 1387ETO    ETO 1417   4.364   0.012   4.086 -0.0170  0.2995 -0.0497
 1388ETO    ETO 1418   3.631   1.126   3.654  0.4475  0.5661 -0.0331
 1389ETO    ETO 1419   1.957   1.724   0.653  0.0121 -0.2571  0.2932
 1390ETO    ETO 1420   1.581   1.291   4.802  0.3696 -0.2661 -0.2276
 1391ETO    ETO 1421   0.550   4.487   4.818 -0.1586 -0.2152 -0.4732
 1392ETO    ETO 1422   0.118   5.251   2.010 -0.5695 -0.1898  0.1936
 1393ETO    ETO 1423   2.226   1.883   4.307 -0.0432 -0.1585 -0.7274
 1394ETO    ETO 1424   5.340   5.069   0.136  0.1109  0.4894 -0.0829
 1395ETO    ETO 1425   1.121   4.968   1.052  0.1556 -0.0728  0.1626
 1396ETO    ETO 1426   0.817   4.314   1.132 -0.1421 -0.1878  0.6184
 1397ETO    ETO 1427   1.402   4.317   4.702  0.0502  0.1563 -0.0905
 1398ETO    ETO 1428   3.132   4.008   3.059 -0.0198  0.2098 -0.1610
 1399ETO    ETO 1429   4.719   1.366   4.044 -0.0415 -0.3032  0.1401
 1400ETO    ETO 1430   3.788   3.191   3.924  0.1261 -0.1140 -0.0123
 1401ETO    ETO 1431   4.745   1.971   0.077 -0.1233  0.2206 -0.1820
 1402ETO    ETO 1432   2.108   0.846   5.098 -0.1389  0.1151 -0.0151
 1403ETO    ETO 1433   2.741   3.715   5.373  0.1232  0.0697 -0.0506
 1404ETO    ETO 1434   4.370   2.819   1.118 -0.0921 -0.0451 -0.1602
 1405ETO    ETO 1435   2.300   0.019   4.161 -0.2104 -0.1561  0.3579
 1406ETO    ETO 1436   1.986   1.717   0.072 -0.3373  0.1563  0.3102
 1407ETO    ETO 1437   0.217   1.804   4.737  0.0233  0.1510  0.0064
 1408ETO    ETO 1438   1.987   4.489   2.702 -0.1917  0.1318 -0.0388
 1409ETO    ETO 1439   0.398   4.748   0.484 -0.0446  0.4542 -0.0673
 1410ETO    ETO 1440   2.687   4.761   3.280 -0.1081  0.1618 -0.0520
 1411ETO    ETO 1441   5.205   4.884   4.185  0.3597  0.1738  0.0001
 1412ETO    ETO 1442   4.653   5.300   5.489  0.3240  0.0607 -0.0444
 1413ETO    ETO 1443   1.899   4.701   3.785  0.0604 -0.1060 -0.1091
 1414ETO    ETO 1444   4.692   4.375   1.947  0.2372  0.1083  0.6771
 1415ETO    ETO 1445   2.704   5.619   2.874 -0.0051  0.2607 -0.2193
 1416ETO    ETO 1446   1.977   5.326   1.678 -0.3086 -0.0188 -0.3822
 1417ETO    ETO 1447   4.880   4.613   0.684 -0.2323  0.1106  0.4134
 1418ETO    ETO 1448   4.049   4.754   4.608 -0.3884 -0.0841 -0.0396
 1419ETO    ETO 1449   2.981   0.840   1.642  0.0549 -0.1215  0.0133
 1420ETO    ETO 1450   4.967   4.681   1.644 -0.3920  0.0108 -0.2074
 1421ETO    ETO 1451   3.571   5.620   0.270 -0.0253  0.3107 -0.3034
 1422ETO    ETO 1452   1.610   3.878   4.027  0.0132 -0.1646 -0.1835
 1423ETO    ETO 1453   1.254   3.429   3.206  0.0580  0.2540 -0.3994
 1424ETO    ETO 1454   2.268   1.786   1.651 -0.1520  0.1496 -0.5769
 1425ETO    ETO 1455   1.568   1.925   0.532 -0.3832  0.3266 -0.0493
 1426ETO    ETO 1456   1.433   3.165   4.411 -0.1595 -0.2591  0.0580
 1427ETO    ETO 1457   5.150   1.839   0.335  0.1164  0.0132  0.2896
 1428ETO    ETO 1458   2.971   0.649   2.022  0.0364 -0.1967  0.0108
 1429ETO    ETO 1459   5.525   5.575   0.306  0.0151 -0.1872 -0.2912
 1430ETO    ETO 1460   5.129   2.973   1.083  0.2151 -0.2623  0.2215
 1431ETO    ETO 1461   2.310   3.215   1.245  0.0911  0.0531 -0.0715
 1432ETO    ETO 1462   1.856   2.291   3.378  0.2584 -0.0690 -0.1404
 1433ETO    ETO 1463   2.827   2.712   3.398  0.1728  0.0315  0.2482
 1434ETO    ETO 1464   4.149   1.618   4.050  0.0505 -0.3115  0.1593
 1435ETO    ETO 1465   2.325   3.770   2.489  0.0104 -0.3943 -0.0684
 1436ETO    ETO 1466   2.735   0.960   4.634  0.4909  0.0949 -0.3087
 1437ETO    ETO 1467   4.197   1.233   3.870 -0.1756 -0.3011 -0.2192
 1438ETO    ETO 1468   4.141   0.409   3.897  0.0298  0.4621 -0.0789
 1439ETO    ETO 1469   3.829   1.092   5.389 -0.1124 -0.0933 -0.0411
 1440ETO    ETO 1470   1.271   2.656   3.915  0.3052 -0.1124 -0.0040
 1441ETO    ETO 1471   3.383   2.781   0.869 -0.1658 -0.0839 -0.0717
 1442ETO    ETO 1472   4.117   1.504   3.016  0.0624  0.0092  0.0401
 1443ETO    ETO 1473   4.673   5.458   1.244 -0.1458  0.1400  0.0934
 1444ETO    ETO 1474   1.520   1.771   4.119 -0.0109 -0.1589  0.1320
 1445ETO    ETO 1475   5.257   0.080   3.872  0.0870 -0.0215 -0.1145
 1446ETO    ETO 1476   0.231   1.616   3.787 -0.0187  0.0812 -0.0122
 1447ETO    ETO 1477   3.016   4.519   1.886  0.3313  0.3937  0.0209
 1448ETO    ETO 1478   0.263   3.144   2.688  0.1873 -0.0518  0.2769
 1449ETO    ETO 1479   0.359   2.392   3.237 -0.2285  0.2982  0.2624
 1450ETO    ETO 1480   2.578   2.320   3.599 -0.2193  0.3379 -0.3442
 1451ETO    ETO 1481   1.755   0.013   1.763 -0.0043 -0.2548  0.0409
 1452ETO    ETO 1482   0.929   3.348   0.413 -0.0138 -0.2296  0.0772
 1453ETO    ETO 1483   0.350   0.203   1.057  0.2469 -0.0961  0.2127
 1454ETO    ETO 1484   2.415   2.842   2.593  0.0338 -0.0883  0.1234
 1455ETO    ETO 1485   0.154   1.501   3.288  0.1379  0.0733  0.1209
 1456ETO    ETO 1486   1.651   0.215   3.945 -0.1856 -0.3402  0.0591
 1457ETO    ETO 1487   2.152   2.077   0.000 -0.0559 -0.4064  0.0694
 1458ETO    ETO 1488   2.312   5.400   3.646  0.1344 -0.2493  0.0168
 1459ETO    ETO 1489   0.489   5.346   5.646 -0.0455 -0.0766 -0.1761
 1460ETO    ETO 1490   5.164   0.177   4.540 -0.6269  0.0600 -0.5807
 1461ETO    ETO 1491   5.069   2.456   1.981  0.0229 -0.0665 -0.4806
 1462ETO    ETO 1492   2.642   4.162   2.306 -0.1337 -0.2050  0.1459
 1463ETO    ETO 1493   0.654   4.141   3.933  0.0448  0.3188 -0.1028
 1464ETO    ETO 1494   3.725   0.907   1.831 -0.0642 -0.3675 -0.2651
 1465ETO    ETO 1495   4.732   3.555   1.421  0.1739  0.1144  0.2112
 1466ETO    ETO 1496   2.129   5.409   5.183  0.5467  0.0639  0.1306
 1467ETO    ETO 1497   0.206   0.311   0.618  0.2199 -0.1844 -0.0794
 1468ETO    ETO 1498   5.652   3.490   4.186 -0.1466 -0.3731  0.3791
 1469ETO    ETO 1499   1.518   5.229   5.667  0.0983  0.1375  0.0906
 1470ETO    ETO 1500   0.622   5.128   3.683  0.0650 -0.0574 -0.2625
 1471ETO    ETO 1501   1.791   4.809   1.816  0.2958  0.3804  0.2434
 1472ETO    ETO 1502   4.124   4.422   2.370  0.0935 -0.0420  0.3145
 1473ETO    ETO 1503   2.772   4.505   2.508  0.0934 -0.2312  0.1321
 1474ETO    ETO 1504   5.285   3.041   5.695 -0.2014  0.0446 -0.0027
 1475ETO    ETO 1505   3.400   5.662   2.557 -0.4483 -0.0032 -0.0244
 1476ETO    ETO 1506   5.123   1.103   2.235 -0.0663 -0.1689  0.3425
 1477ETO    ETO 1507   2.845   3.760   4.547 -0.0837  0.0727  0.0714
 1478ETO    ETO 1508   1.768   2.751   4.656  0.0959 -0.0851  0.0292
 1479ETO    ETO 1509   3.976   2.865   4.207 -0.1234  0.1173 -0.3249
 1480ETO    ETO 1510   5.084   3.431   4.179 -0.3455 -0.0169  0.2592
 1481ETO    ETO 1511   4.656   3.360   1.851 -0.4230  0.0449 -0.3113
 1482ETO    ETO 1512   4.609   1.501   2.788 -0.4258 -0.3276 -0.1906
 1483ETO    ETO 1513   0.587   1.605   2.074 -0.1883  0.1634 -0.0266
 1484ETO    ETO 1514   4.457   0.172   4.985 -0.3227  0.5862 -0.1332
 1485ETO    ETO 1515   0.045   3.390   4.694 -0.0051 -0.2269  0.0411
 1486ETO    ETO 1516   3.018   3.706   4.091  0.1314 -0.1185  0.0549
 1487ETO    ETO 1517   1.511   1.528   3.190 -0.0710 -0.1383  0.0172
 1488ETO    ETO 1518   1.375   2.554   0.634  0.0664 -0.1086 -0.2694
 1489ETO    ETO 1519   5.152   1.866   1.120  0.0317  0.1687  0.0999
 1490ETO    ETO 1520   1.164   1.801   0.671  0.2675  0.0398 -0.0711
 1491ETO    ETO 1521   5.561   0.166   1.217  0.0147 -0.3502 -0.2376
 1492ETO    ETO 1522   0.005   3.165   1.524  0.3433  0.1754 -0.1862
 1493ETO    ETO 1523   3.823   3.380   1.557 -0.0714  0.1771  0.2953
 1494ETO    ETO 1524   1.956   2.079   0.417  0.0142  0.2207  0.0040
 1495ETO    ETO 1525   0.364   2.615   4.901 -0.2476 -0.3191 -0.0654
 1496ETO    ETO 1526   3.876   0.162   2.220  0.1837  0.0429  0.1697
 1497ETO    ETO 1527   0.578   0.093   1.392  0.0189  0.4378  0.5206
 1498ETO    ETO 1528   5.553   2.082   4.300  0.0818 -0.0655 -0.3708
 1499ETO    ETO 1529   1.945   0.722   5.529 -0.0724 -0.3150  0.0032
 1500ETO    ETO 1530   4.459   4.775   0.178  0.2328 -0.3755  0.6523
 1501ETO    ETO 1531   3.769   2.155   2.282  0.0527  0.0246 -0.0034
 1502ETO    ETO 1532   5.117   3.298   0.617  0.1210  0.2094  0.0690
 1503ETO    ETO 1533   4.962   5.034   0.536  0.2042  0.0515 -0.0869
 1504ETO    ETO 1534   0.905   5.561   5.158 -0.1875  0.3539 -0.2055
 1505ETO    ETO 1535   4.622   3.025   3.104 -0.3569  0.0656  0.0046
 1506ETO    ETO 1536   3.389   3.848   2.353  0.0683 -0.2725 -0.1050
 1507ETO    ETO 1537   0.983   0.330   2.407  0.0589  0.1524  0.1339
 1508ETO    ETO 1538   4.560   2.434   3.771 -0.0155 -0.1222 -0.2130
 1509ETO    ETO 1539   0.934   0.829   2.843 -0.1420 -0.3037  0.0857
 1510ETO    ETO 1540   3.257   0.119   3.333 -0.0829 -0.1040  0.2313
 1511ETO    ETO 1541   3.780   1.963   1.801  0.1797  0.1897 -0.2286
 1512ETO    ETO 1542   2.581   2.482   0.079  0.2374  0.0885  0.3435
 1513ETO    ETO 1543   2.954   4.367   1.492 -0.3414 -0.2494  0.1662
 1514ETO    ETO 1544   2.765   3.067   1.123  0.0734 -0.1044  0.0886
 1515ETO    ETO 1545   5.461   0.194   4.226  0.2731  0.1687 -0.2371
 1516ETO    ETO 1546   3.870   1.981   5.005 -0.0419 -0.0901 -0.2139
 1517ETO    ETO 1547   3.026   3.296   4.193 -0.0316 -0.0340 -0.0619
 1518ETO    ETO 1548   1.147   4.444   5.191  0.2105 -0.0493 -0.3532
 1519ETO    ETO 1549   2.441   2.039   2.017  0.4785  0.1823  0.0237
 1520ETO    ETO 1550   5.544   2.809   0.554  0.1467  0.1151 -0.0604
 1521ETO    ETO 1551   4.657   5.554   1.940 -0.1183  0.1450  0.2111
 1522ETO    ETO 1552   3.336   2.688   2.360 -0.0096  0.1312  0.1820
 1523ETO    ETO 1553   1.259   3.277   2.830 -0.0892 -0.3848 -0.1636
 1524ETO    ETO 1554   2.792   0.666   0.037  0.0993 -0.2432  0.1393
 1525ETO    ETO 1555   0.374   4.956   0.138 -0.0242  0.1149 -0.0293
 1526ETO    ETO 1556   1.573   0.686   4.039 -0.3293 -0.0515  0.1553
 1527ETO    ETO 1557   1.718   3.386   4.605 -0.4094  0.0310 -0.0152
 1528ETO    ETO 1558   2.951   3.414   1.437  0.1466  0.0246  0.1976
 1529ETO    ETO 1559   0.774   5.219   1.676 -0.1243  0.3054 -0.0641
 1530ETO    ETO 1560   1.751   3.127   3.606  0.1295 -0.2370 -0.1783
 1531ETO    ETO 1561   1.836   4.427   2.146 -0.2066 -0.0930  0.1110
 1532ETO    ETO 1562   3.639   4.543   2.509 -0.1422  0.3690 -0.0588
 1533ETO    ETO 1563   4.881   1.808   0.783  0.0030  0.2221 -0.0122
 1534ETO    ETO 1564   4.407   3.610   0.224  0.1231 -0.3497 -0.0566
 1535ETO    ETO 1565   4.308   3.522   3.022  0.2525  0.4970  0.1707
 1536ETO    ETO 1566   1.222   0.530   4.776 -0.3036  0.2143  0.2920
 1537ETO    ETO 1567   1.375   0.899   1.591 -0.1101  0.1855 -0.2553
 1538ETO    ETO 1568   0.219   3.707   3.938 -0.3307 -0.2580  0.2388
 1539ETO    ETO 1569   0.254   1.617   1.098  0.0979 -0.2237  0.0304
 1540ETO    ETO 1570   3.399   5.225   4.611  0.4262  0.1272  0.2253
 1541ETO    ETO 1571   4.612   4.005   0.232 -0.2449  0.2755  0.0972
 1542ETO    ETO 1572   4.910   0.850   2.507 -0.0175  0.2484 -0.3445
 1543ETO    ETO 1573   4.769   4.453   0.275  0.1946 -0.2494  0.0593
 1544ETO    ETO 1574   3.975   2.839   1.933  0.1657  0.0737 -0.0646
 1545ETO    ETO 1575   5.335   2.999   1.615  0.2202 -0.0041 -0.1694
 1546ETO    ETO 1576   2.917   5.281   0.701 -0.2614 -0.0430  0.1638
 1547ETO    ETO 1577   1.745   2.723   3.392  0.1351  0.2104 -0.2577
 1548ETO    ETO 1578   0.999   4.756   2.550 -0.2704  0.0893 -0.2112
 1549ETO    ETO 1579   5.503   0.638   3.053 -0.3725  0.0163  0.3448
 1550ETO    ETO 1580   0.418   1.010   5.343 -0.0903 -0.1277  0.0952
 1551ETO    ETO 1581   3.224   2.097   0.779  0.6306  0.0006 -0.0684
 1552ETO    ETO 1582   2.183   2.550   0.734  0.0797 -0.0670  0.4950
 1553ETO    ETO 1583   0.507   0.976   0.514 -0.1227 -0.2276  0.1813
 1554ETO    ETO 1584   1.154   0.137   3.813  0.0233 -0.0078 -0.2134
 1555ETO    ETO 1585   2.610   0.705   1.422 -0.0676  0.0484 -0.2006
 1556ETO    ETO 1586   0.194   1.297   4.245 -0.2309 -0.0245 -0.0145
 1557ETO    ETO 1587   1.847   0.935   3.597 -0.1868 -0.1897 -0.0255
 1558ETO    ETO 1588   1.074   0.769   2.426 -0.2299  0.4013 -0.0471
 1559ETO    ETO 1589   5.527   3.886   4.061 -0.4241  0.0339 -0.1860
 1560ETO    ETO 1590   3.363   4.252   1.304  0.1432 -0.0506  0.0974
 1561ETO    ETO 1591   3.777   4.447   0.475  0.1448  0.7117 -0.2020
 1562ETO    ETO 1592   1.446   3.826   0.571  0.1866 -0.1561 -0.0184
 1563ETO    ETO 1593   3.130   2.375   3.695  0.1153 -0.1631  0.1630
 1564ETO    ETO 1594   5.242   4.655   0.136 -0.1817 -0.0449 -0.1003
 1565ETO    ETO 1595   0.339   2.907   4.157  0.2655  0.2233  0.1455
 1566ETO    ETO 1596   3.096   5.193   4.193 -0.1910  0.2112  0.2954
 1567ETO    ETO 1597   1.725   1.019   1.370 -0.0906  0.1651 -0.0363
 1568ETO    ETO 1598   2.836   1.356   4.963  0.2563 -0.2146  0.0925
 1569ETO    ETO 1599   4.962   3.791   1.164  0.3191 -0.0397  0.0513
 1570ETO    ETO 1600   4.261   2.678   2.640 -0.0634 -0.1396  0.3506
 1571ETO    ETO 1601   1.351   2.213   1.492 -0.1871 -0.1245 -0.1347
 1572ETO    ETO 1602   3.043   1.664   4.754 -0.2028  0.4256  0.2532
 1573ETO    ETO 1603   3.815   5.023   2.870  0.2719  0.2031  0.3882
 1574ETO    ETO 1604   2.006   3.534   2.123  0.0008  0.1582 -0.1085
 1575ETO    ETO 1605   3.538   4.757   3.420 -0.2508  0.0690  0.1487
 1576ETO    ETO 1606   1.274   0.271   4.236  0.1371 -0.1683 -0.0981
 1577ETO    ETO 1607   0.623   0.624   4.249  0.0792 -0.2756  0.0622
 1578ETO    ETO 1608   4.956   1.373   1.891 -0.4343  0.2106 -0.1383
 1579ETO    ETO 1609   4.457   5.688   0.503 -0.0676 -0.0228  0.3574
 1580ETO    ETO 1610   2.565   4.657   5.512  0.0639  0.3174 -0.2875
 1581ETO    ETO 1611   0.878   5.175   4.909  0.1100  0.2000 -0.4495
 1582ETO    ETO 1612   4.381   3.582   0.977  0.2841 -0.0356 -0.2375
 1583ETO    ETO 1613   5.057   5.431   5.330  0.2841 -0.1006  0.2164
 1584ETO    ETO 1614   5.265   4.195   5.131  0.3539  0.3415  0.0600
 1585ETO    ETO 1615   1.957   4.272   5.708 -0.0352  0.1023 -0.2874
 1586ETO    ETO 1616   3.605   3.510   2.608 -0.3613  0.0482  0.1073
 1587ETO    ETO 1617   2.615   1.022   3.018  0.0194  0.2165 -0.3354
 1588ETO    ETO 1618   2.455   1.012   4.222 -0.0020  0.3115  0.4443
 1589ETO    ETO 1619   5.234   2.564   2.819 -0.1877 -0.0570 -0.3343
 1590ETO    ETO 1620   3.164   1.915   5.661  0.0737  0.1019 -0.1603
 1591ETO    ETO 1621   0.655   3.996   5.663 -0.1818 -0.0386  0.2644
 1592ETO    ETO 1622   0.744   0.730   4.800  0.3951  0.2291 -0.2169
 1593ETO    ETO 1623   2.598   3.430   4.473  0.1288 -0.0160  0.0175
 1594ETO    ETO 1624   0.155   2.236   0.308  0.1690  0.1393  0.3446
 1595ETO    ETO 1625   3.095   2.748   1.991 -0.1811  0.0555 -0.0783
 1596ETO    ETO 1626   5.548   5.394   1.464  0.0583 -0.0438  0.0748
 1597ETO    ETO 1627   5.449   1.201   1.916  0.1211  0.0934  0.2344
 1598ETO    ETO 1628   2.113   0.370   0.069  0.3182  0.2101  0.2482
 1599ETO    ETO 1629   5.678   0.282   5.283 -0.1067 -0.1303  0.0433
 1600ETO    ETO 1630   3.626   0.053   1.877  0.1281 -0.0546 -0.0582
 1601ETO    ETO 1631   0.460   0.399   1.883  0.1136  0.0802 -0.0760
 1602ETO    ETO 1632   5.505   3.386   5.561 -0.1078  0.1804  0.1916
 1603ETO    ETO 1633   2.391   0.312   1.284  0.2845 -0.0606 -0.1855
 1604ETO    ETO 1634   4.809   1.032   4.671  0.1333  0.0021  0.2475
 1605ETO    ETO 1635   5.676   5.104   4.339 -0.5175  0.0160  0.0216
 1606ETO    ETO 1636   1.093   1.615   1.113 -0.0938  0.0788  0.2802
 1607ETO    ETO 1637   0.650   1.602   1.198  0.1204 -0.1256 -0.0156
 1608ETO    ETO 1638   0.419   3.959   3.141  0.0937 -0.0250 -0.3235
 1609ETO    ETO 1639   2.627   2.723   4.702 -0.0518 -0.1216  0.3289
 1610ETO    ETO 1640   0.473   4.530   4.323 -0.1083  0.0416  0.5653
 1611ETO    ETO 1641   1.752   2.490   2.248  0.0015  0.3696 -0.2270
 1612ETO    ETO 1642   5.604   2.441   3.078 -0.0542  0.4874 -0.1871
 1613ETO    ETO 1643   0.344   2.903   5.198 -0.2895 -0.3053 -0.2704
 1614ETO    ETO 1644   3.364   0.182   1.053 -0.1776  0.0860  0.1289
 1615ETO    ETO 1645   3.634   4.777   1.513 -0.3898 -0.4898  0.0404
 1616ETO    ETO 1646   4.028   2.394   1.274 -0.4583 -0.0194  0.3113
 1617ETO    ETO 1647   5.514   1.388   2.316  0.1905 -0.1759 -0.0693
 1618ETO    ETO 1648   3.085   4.967   5.649  0.1959  0.0399 -0.1833
 1619ETO    ETO 1649   3.294   2.478   0.615 -0.0682 -0.1249  0.2503
 1620ETO    ETO 1650   4.707   3.845   3.686  0.1689  0.1015  0.4932
 1621ETO    ETO 1651   5.479   5.411   3.678 -0.1442 -0.1067 -0.0726
 1622ETO    ETO 1652   5.086   1.890   5.153 -0.2344  0.0759  0.1793
 1623ETO    ETO 1653   2.152   4.822   2.926  0.1495  0.4668  0.0116
 1624ETO    ETO 1654   3.482   4.761   2.978 -0.1337 -0.0176 -0.2698
 1625ETO    ETO 1655   0.557   1.594   4.353  0.2432  0.3127 -0.0746
 1626ETO    ETO 1656   0.364   2.753   3.759 -0.0391  0.2231 -0.1922
 1627ETO    ETO 1657   0.434   5.514   2.894 -0.1889  0.2175 -0.2409
 1628ETO    ETO 1658   0.494   3.394   0.252  0.2359  0.1189 -0.0015
 1629ETO    ETO 1659   1.622   2.528   5.402 -0.0740 -0.2881 -0.2927
 1630ETO    ETO 1660   3.485   1.795   0.678 -0.2251 -0.2976  0.1761
 1631ETO    ETO 1661   0.585   0.540   0.583  0.3804 -0.1166 -0.5081
 1632ETO    ETO 1662   3.477   1.121   0.811 -0.0374 -0.0174  0.2204
 1633ETO    ETO 1663   0.653   2.428   5.108  0.1502  0.2762 -0.1115
 1634ETO    ETO 1664   3.189   5.541   0.937  0.0900  0.3457 -0.0416
 1635ETO    ETO 1665   1.545   1.998   5.397  0.3649  0.2650  0.1081
 1636ETO    ETO 1666   1.072   0.967   1.916 -0.0535 -0.2804 -0.1018
 1637ETO    ETO 1667   5.218   2.128   0.705 -0.2592 -0.0364 -0.1368
 1638ETO    ETO 1668   2.676   0.266   4.574 -0.0172 -0.3230 -0.0367
 1639ETO    ETO 1669   5.503   0.480   2.330  0.0238 -0.0080  0.2588
 1640ETO    ETO 1670   4.317   2.598   1.580 -0.4311 -0.1215  0.1504
 1641ETO    ETO 1671   4.467   4.918   5.241 -0.1352 -0.3415  0.5221
 1642ETO    ETO 1672   5.457   4.351   2.767  0.0054  0.0926 -0.2524
 1643ETO    ETO 1673   2.345   0.295   0.428  0.2052 -0.2413  0.3363
 1644ETO    ETO 1674   2.733   3.679   0.698 -0.1036 -0.5484  0.1599
 1645ETO    ETO 1675   1.481   2.860   5.181  0.2298  0.2340 -0.0041
 1646ETO    ETO 1676   3.830   5.161   0.054  0.0897  0.1730  0.1685
 1647ETO    ETO 1677   0.280   4.515   5.355  0.2498  0.0171 -0.0705
 1648ETO    ETO 1678   0.306   0.681   1.079  0.3982  0.4448  0.0125
 1649ETO    ETO 1679   0.523   5.460   0.313  0.0990  0.1380  0.2720
 1650ETO    ETO 1680   3.409   1.725   3.897  0.3543  0.2656  0.2257
 1651ETO    ETO 1681   2.159   1.624   1.060  0.1727 -0.1857  0.4339
 1652ETO    ETO 1682   5.339   0.951   5.652  0.2568 -0.0457 -0.1323
 1653ETO    ETO 1683   4.964   0.589   5.627  0.1262 -0.1609  0.0429
 1654ETO    ETO 1684   3.184   4.142   2.043  0.0245 -0.0688 -0.1084
 1655ETO    ETO 1685   4.380   0.372   2.744 -0.1981  0.0714  0.0860
 1656ETO    ETO 1686   5.607   3.700   0.624  0.1119 -0.2925 -0.0344
 1657ETO    ETO 1687   2.808   5.554   4.349  0.1851  0.0330 -0.0094
 1658ETO    ETO 1688   1.666   3.279   2.977 -0.0214  0.1826 -0.1904
 1659ETO    ETO 1689   0.075   0.638   1.559 -0.3740 -0.0810  0.0938
 1660ETO    ETO 1690   2.733   1.268   1.963 -0.1817  0.4427  0.3889
 1661ETO    ETO 1691   1.257   1.640   2.489  0.1083  0.2918 -0.3591
 1662ETO    ETO 1692   4.922   4.784   4.658  0.0991  0.2491  0.3749
 1663ETO    ETO 1693   5.601   3.828   0.236 -0.1864  0.2152  0.0179
 1664ETO    ETO 1694   1.901   3.178   0.917 -0.1604  0.0829  0.1329
 1665ETO    ETO 1695   0.562   5.407   2.217 -0.0634  0.1693 -0.0340
 1666ETO    ETO 1696   1.527   4.484   3.472  0.0685 -0.0193 -0.3253
 1667ETO    ETO 1697   5.438   2.049   2.909 -0.1248  0.2428  0.3263
 1668ETO    ETO 1698   2.417   0.630   4.718  0.1330 -0.3663  0.0812
 1669ETO    ETO 1699   5.253   0.098   3.472 -0.0249 -0.0551  0.0801
 1670ETO    ETO 1700   1.451   0.017   0.357 -0.0993  0.2004  0.2232
 1671ETO    ETO 1701   1.154   0.028   3.309  0.0043  0.3366 -0.0762
 1672ETO    ETO 1702   2.310   1.437   5.272  0.1743  0.0623  0.0052
 1673ETO    ETO 1703   3.718   1.460   1.527  0.2184  0.0483 -0.0793
 1674ETO    ETO 1704   3.987   4.736   0.211  0.1346  0.0534  0.2827
 1675ETO    ETO 1705   0.787   0.023   2.081  0.2778 -0.4644  0.2269
 1676ETO    ETO 1706   1.577   4.864   4.640 -0.1961 -0.0695  0.6955
 1677ETO    ETO 1707   5.042   1.091   3.411  0.0070 -0.2947  0.0050
 1678ETO    ETO 1708   4.070   0.233   5.270  0.1331  0.2167  0.2225
 1679ETO    ETO 1709   2.867   0.787   0.645 -0.0694 -0.0660 -0.0759
 1680ETO    ETO 1710   0.721   0.966   3.997 -0.5209 -0.1773  0.1354
 1681ETO    ETO 1711   5.314   0.627   1.403  0.2671  0.1386  0.1777
 1682ETO    ETO 1712   3.608   5.541   3.402  0.1538  0.0778  0.1461
 1683ETO    ETO 1713   0.227   3.819   1.807 -0.1787 -0.1890 -0.0328
 1684ETO    ETO 1714   3.732   3.244   5.249  0.1449 -0.1103  0.1036
 1685ETO    ETO 1715   0.164   2.094   2.829  0.1630  0.2535 -0.1184
 1686ETO    ETO 1716   3.433   1.957   1.529 -0.0350 -0.1439 -0.0373
 1687ETO    ETO 1717   3.891   3.543   2.969  0.2171  0.5532 -0.0776
 1688ETO    ETO 1718   1.495   4.088   1.328 -0.2559  0.0723 -0.0353
 1689ETO    ETO 1719   3.390   2.899   1.640 -0.2618  0.0186 -0.1763
 1690ETO    ETO 1720   1.825   4.536   4.349 -0.0899 -0.0656  0.1528
 1691ETO    ETO 1721   3.900   5.699   5.734  0.0578 -0.1622 -0.2366
 1692ETO    ETO 1722   4.488   3.969   4.611  0.1634  0.1056 -0.3286
 1693ETO    ETO 1723   3.254   3.477   2.204 -0.2276 -0.0464  0.0724
 1694ETO    ETO 1724   2.156   3.004   1.632  0.2121 -0.1371 -0.2240
 1695ETO    ETO 1725   1.285   3.848   5.735 -0.1338  0.1268 -0.0437
 1696ETO    ETO 1726   1.543   2.465   4.992  0.4021  0.0777 -0.1325
 1697ETO    ETO 1727   5.196   2.260   4.371  0.1437 -0.0039 -0.1721
 1698ETO    ETO 1728   4.558   1.737   4.279 -0.2590  0.0255  0.2368
 1699ETO    ETO 1729   2.922   1.036   5.693 -0.0612  0.0656 -0.2949
 1700ETO    ETO 1730   3.097   0.942   4.983 -0.3945  0.1111 -0.0647
 1701ETO    ETO 1731   1.009   3.220   5.183 -0.0951  0.2682 -0.2300
 1702ETO    ETO 1732   0.177   1.631   1.951 -0.1976  0.1333  0.0585
 1703ETO    ETO 1733   2.339   4.521   5.140  0.2895  0.1348 -0.4165
 1704ETO    ETO 1734   4.778   0.391   2.516 -0.3100  0.0622 -0.2063
 1705ETO    ETO 1735   4.368   1.824   2.663 -0.1851  0.1352  0.1230
 1706ETO    ETO 1736   4.647   3.661   4.087  0.1609 -0.1031  0.1488
 1707ETO    ETO 1737   5.355   2.112   5.728 -0.1023 -0.0966  0.3417
 1708ETO    ETO 1738   2.220   2.435   4.647 -0.0528 -0.1677  0.2866
 1709ETO    ETO 1739   2.330   4.050   1.773 -0.3256 -0.1485 -0.1123
 1710ETO    ETO 1740   0.385   4.926   4.091 -0.2376  0.0798  0.0094
 1711ETO    ETO 1741   2.403   1.856   5.213  0.1284 -0.0016  0.1113
 1712ETO    ETO 1742   3.847   1.963   0.753 -0.6301  0.0772  0.0514
 1713ETO    ETO 1743   0.598   1.660   4.934  0.1527  0.3525 -0.0689
 1714ETO    ETO 1744   2.969   3.271   5.290 -0.1517  0.1398 -0.5808
 1715ETO    ETO 1745   4.190   3.224   4.115  0.0586 -0.0359  0.2807
 1716ETO    ETO 1746   0.559   4.314   0.655 -0.0849 -0.0667  0.0036
 1717ETO    ETO 1747   1.736   1.402   1.582  0.0210  0.0473  0.1499
 1718ETO    ETO 1748   5.430   4.866   4.664  0.3151 -0.0816 -0.1389
 1719ETO    ETO 1749   0.667   2.499   1.482  0.1771  0.0035 -0.1311
 1720ETO    ETO 1750   2.325   1.429   4.307  0.2088  0.4024 -0.0297
 1721ETO    ETO 1751   4.212   4.163   1.864  0.2397 -0.0119 -0.4620
 1722ETO    ETO 1752   0.878   4.140   0.277  0.3927 -0.2352 -0.0151
 1723ETO    ETO 1753   4.594   4.816   3.273  0.0734 -0.2442 -0.0722
 1724ETO    ETO 1754   4.425   5.300   0.101 -0.2111  0.0638 -0.1173
 1725ETO    ETO 1755   1.312   4.849   3.151 -0.2235  0.3036  0.2036
 1726ETO    ETO 1756   3.983   3.927   5.085  0.0620 -0.1101  0.0462
 1727ETO    ETO 1757   3.429   2.203   4.326  0.0152  0.1324  0.1560
 1728ETO    ETO 1758   2.259   5.113   2.535  0.3964 -0.1600 -0.3707
 1729ETO    ETO 1759   3.810   0.386   4.841  0.0303 -0.1807 -0.2635
 1730ETO    ETO 1760   4.025   5.495   0.337 -0.0771 -0.0269  0.0960
 1731ETO    ETO 1761   1.727   3.334   2.415 -0.1689 -0.0979  0.2752
 1732ETO    ETO 1762   4.218   1.504   1.455  0.1719  0.0186 -0.0207
 1733ETO    ETO 1763   1.496   3.511   2.081 -0.1818 -0.1362 -0.3077
 1734ETO    ETO 1764   1.311   1.226   3.373 -0.5221 -0.0335  0.0004
 1735ETO    ETO 1765   0.743   0.488   1.461  0.1935 -0.0275 -0.1442
 1736ETO    ETO 1766   0.351   0.013   2.066  0.1396  0.2435  0.0147
 1737ETO    ETO 1767   3.678   4.069   2.653 -0.3000  0.0485  0.6142
 1738ETO    ETO 1768   2.943   1.784   1.148  0.3239  0.1322  0.1561
 1739ETO    ETO 1769   4.215   5.360   2.214 -0.2639 -0.4130  0.0263
 1740ETO    ETO 1770   3.179   0.736   2.953  0.1739  0.0241  0.0044
 1741ETO    ETO 1771   5.336   0.846   2.518  0.2305  0.1953 -0.0211
 1742ETO    ETO 1772   4.008   2.621   3.833 -0.2099 -0.1221  0.1926
 1743ETO    ETO 1773   5.615   3.849   5.559  0.2300 -0.0134 -0.3481
 1744ETO    ETO 1774   0.655   3.702   4.058  0.0693 -0.1174  0.2284
 1745ETO    ETO 1775   2.721   3.026   1.563  0.0178 -0.1760 -0.1601
 1746ETO    ETO 1776   1.698   3.236   1.831 -0.1215  0.0378 -0.0142
 1747ETO    ETO 1777   1.786   2.732   0.570  0.3164  0.1391 -0.0832
 1748ETO    ETO 1778   4.492   5.355   0.786 -0.0663 -0.2464  0.0008
 1749ETO    ETO 1779   0.944   5.647   0.428  0.2625 -0.0907  0.0853
 1750ETO    ETO 1780   0.811   2.135   3.332  0.1228  0.1107  0.1688
 1751ETO    ETO 1781   0.679   2.803   2.175 -0.0764  0.1880  0.0197
 1752ETO    ETO 1782   1.584   2.946   0.275 -0.1291  0.1850  0.1694
 1753ETO    ETO 1783   0.753   1.738   1.611  0.0965 -0.0317 -0.0765
 1754ETO    ETO 1784   3.630   0.037   4.497  0.0670 -0.1441  0.0750
 1755ETO    ETO 1785   3.881   0.240   1.242 -0.1209  0.1875 -0.1224
 1756ETO    ETO 1786   0.067   2.034   5.627  0.2578 -0.1984  0.1752
 1757ETO    ETO 1787   4.299   4.535   1.148  0.0458  0.2139 -0.0030
 1758ETO    ETO 1788   5.680   2.494   5.255  0.0125 -0.3929  0.0242
 1759ETO    ETO 1789   1.421   2.594   2.555 -0.0211 -0.0341  0.1037
 1760ETO    ETO 1790   4.138   4.175   5.399  0.0571 -0.1365  0.0461
 1761ETO    ETO 1791   4.882   0.988   1.316  0.1335 -0.0848 -0.0392
 1762ETO    ETO 1792   1.468   4.836   1.269 -0.2240  0.2544 -0.2773
 1763ETO    ETO 1793   2.506   4.885   4.351  0.3108  0.0925 -0.0544
 1764ETO    ETO 1794   1.863   2.087   3.814  0.0618  0.0671 -0.1429
 1765ETO    ETO 1795   4.216   0.860   3.713  0.2807 -0.2536 -0.0489
 1766ETO    ETO 1796   1.054   3.842   4.613 -0.2051  0.1989 -0.4036
 1767ETO    ETO 1797   5.356   3.618   4.536 -0.2824 -0.2321 -0.3008
 1768ETO    ETO 1798   4.628   4.710   4.221  0.0633  0.0387  0.1750
 1769ETO    ETO 1799   0.573   1.240   2.643 -0.1174 -0.0053 -0.0294
 1770ETO    ETO 1800   2.998   3.983   0.893  0.0086 -0.1213  0.1693
 1771ETO    ETO 1801   1.070   2.801   5.035  0.0130 -0.3169 -0.1595
 1772ETO    ETO 1802   4.934   4.283   5.558 -0.0023 -0.0008  0.0910
 1773ETO    ETO 1803   2.961   3.829   2.236 -0.1536 -0.1205  0.2318
 1774ETO    ETO 1804   2.320   1.481   1.944 -0.2605  0.0980 -0.0214
 1775ETO    ETO 1805   1.916   5.383   3.453  0.1841 -0.1018 -0.2806
 1776ETO    ETO 1806   2.208   3.757   3.485  0.1463  0.0547  0.0309
 1777ETO    ETO 1807   4.388   0.466   4.213  0.0181  0.2703 -0.3077
 1778ETO    ETO 1808   5.071   1.312   0.694 -0.2104  0.1691  0.3218
 1779ETO    ETO 1809   2.558   4.623   1.819 -0.0280  0.2196  0.5616
 1780ETO    ETO 1810   4.532   1.447   3.206 -0.1235 -0.3920 -0.1298
 1781ETO    ETO 1811   3.345   0.736   0.033 -0.0590 -0.2973  0.3613
 1782ETO    ETO 1812   3.723   4.265   3.865  0.1946  0.2181  0.4323
 1783ETO    ETO 1813   5.672   4.752   0.429  0.1414 -0.1179  0.4265
 1784ETO    ETO 1814   3.290   1.321   5.008  0.0942  0.0504  0.1630
 1785ETO    ETO 1815   0.808   4.435   2.067  0.1799  0.1474 -0.0991
 1786ETO    ETO 1816   0.032   0.361   1.978 -0.3796 -0.0474  0.2559
 1787ETO    ETO 1817   3.503   5.031   4.183  0.3566  0.0611 -0.1947
 1788ETO    ETO 1818   1.400   0.468   3.640  0.2176  0.0447  0.3511
 1789ETO    ETO 1819   2.117   4.475   1.716  0.0116 -0.1325  0.0925
 1790ETO    ETO 1820   3.332   4.021   3.849 -0.1052 -0.1187 -0.5485
 1791ETO    ETO 1821   2.682   1.305   5.436  0.1232  0.2885  0.2352
 1792ETO    ETO 1822   2.499   0.234   2.407  0.1090 -0.1250  0.1835
 1793ETO    ETO 1823   0.640   2.682   3.421  0.0736  0.1728  0.2864
 1794ETO    ETO 1824   0.986   4.232   3.474 -0.2677 -0.1924 -0.4245
 1795ETO    ETO 1825   2.986   1.450   0.085  0.0449  0.1684 -0.2768
 1796ETO    ETO 1826   0.504   2.133   1.243 -0.0268 -0.1086  0.0412
 1797ETO    ETO 1827   2.635   1.778   4.044  0.1836 -0.0698 -0.2108
 1798ETO    ETO 1828   5.542   0.230   0.414  0.1646 -0.2588  0.1963
 1799ETO    ETO 1829   3.325   1.708   1.136  0.3591  0.1182  0.1074
 1800ETO    ETO 1830   2.244   0.777   1.610  0.0608 -0.1252 -0.0534
 1801ETO    ETO 1831   3.718   4.107   5.455  0.3128 -0.0448  0.0027
 1802ETO    ETO 1832   2.763   1.001   3.823  0.0109  0.3818  0.2722
 1803ETO    ETO 1833   4.013   1.261   0.756 -0.0070 -0.2670  0.3218
 1804ETO    ETO 1834   2.759   2.798   2.349 -0.1209  0.0643 -0.0258
 1805ETO    ETO 1835   5.070   3.335   1.549  0.1444 -0.2042  0.3183
 1806ETO    ETO 1836   1.407   2.140   3.834  0.3805  0.3584 -0.2346
 1807ETO    ETO 1837   0.679   4.350   5.220  0.2968  0.2535  0.1496
 1808ETO    ETO 1838   5.015   3.455   3.562 -0.1304 -0.3231 -0.2014
 1809ETO    ETO 1839   1.148   0.370   1.059  0.2677 -0.1740 -0.2470
 1810ETO    ETO 1840   2.244   2.573   5.566 -0.0372 -0.2528  0.2011
 1811ETO    ETO 1841   0.020   0.379   3.295 -0.1170  0.1447  0.0690
 1812ETO    ETO 1842   0.428   4.987   3.295 -0.1417 -0.4050  0.0224
 1813ETO    ETO 1843   0.924   0.584   0.158 -0.0093 -0.0396 -0.1837
 1814ETO    ETO 1844   0.354   3.233   3.807  0.2180  0.2678 -0.2120
 1815ETO    ETO 1845   5.096   1.378   2.675  0.0192  0.1608 -0.2335
 1816ETO    ETO 1846   4.510   2.961   1.919 -0.1723  0.1649 -0.0779
 1817ETO    ETO 1847   3.206   1.741   5.149  0.0005 -0.0097 -0.4384
 1818ETO    ETO 1848   1.696   4.321   3.887 -0.0415  0.2395 -0.2989
 1819ETO    ETO 1849   2.908   3.915   1.324  0.0641  0.3030  0.0050
 1820ETO    ETO 1850   2.896   1.442   2.640 -0.0162 -0.4436 -0.1415
 1821ETO    ETO 1851   2.406   3.383   3.732 -0.2229  0.0438 -0.2670
 1822ETO    ETO 1852   2.291   5.075   1.369 -0.0031 -0.1065  0.1457
 1823ETO    ETO 1853   1.119   0.378   2.874  0.1660  0.4902 -0.1545
 1824ETO    ETO 1854   3.420   0.472   4.231 -0.2593 -0.0010  0.0704
 1825ETO    ETO 1855   2.325   3.928   0.743  0.0213  0.3121 -0.4037
 1826ETO    ETO 1856   3.570   0.325   2.688  0.4543 -0.0610 -0.2631
 1827ETO    ETO 1857   0.838   3.662   0.142 -0.0488 -0.0579  0.1316
 1828ETO    ETO 1858   0.934   1.914   3.823  0.3514  0.1810 -0.1542
 1829ETO    ETO 1859   5.377   4.284   3.994 -0.1965  0.2153  0.1549
 1830ETO    ETO 1860   2.327   3.626   4.128  0.1357  0.3619  0.0489
 1831ETO    ETO 1861   5.591   1.245   3.968  0.3281  0.0927 -0.1535
 1832ETO    ETO 1862   1.124   0.189   1.455 -0.0936 -0.1782  0.1993
 1833ETO    ETO 1863   1.492   5.235   2.068  0.1963  0.2910 -0.0599
 1834ETO    ETO 1864   1.949   1.269   2.163 -0.4129  0.1953  0.0658
 1835ETO    ETO 1865   3.659   4.936   4.561  0.0008  0.1012  0.1609
 1836ETO    ETO 1866   5.637   5.439   2.822 -0.2875 -0.0321 -0.0864
 1837ETO    ETO 1867   2.332   1.325   1.454 -0.1287 -0.2178 -0.1615
 1838ETO    ETO 1868   2.446   0.655   2.363 -0.1029 -0.0934 -0.0995
 1839ETO    ETO 1869   5.591   3.611   3.743  0.0031  0.1648 -0.1456
 1840ETO    ETO 1870   3.140   0.151   4.606  0.2064 -0.1223  0.1202
 1841ETO    ETO 1871   4.232   4.703   3.998  0.0127  0.0880  0.3490
 1842ETO    ETO 1872   2.322   3.839   1.285 -0.4206 -0.0894  0.1976
 1843ETO    ETO 1873   0.084   4.250   3.818 -0.3488 -0.1445  0.0309
 1844ETO    ETO 1874   1.886   1.675   4.412  0.1956  0.1957 -0.0943
 1845ETO    ETO 1875   2.228   3.447   0.906 -0.0485  0.1196 -0.0521
 1846ETO    ETO 1876   2.063   1.699   2.907 -0.3523 -0.0806 -0.0733
 1847ETO    ETO 1877   2.360   4.434   3.283 -0.5550 -0.3752 -0.1853
 1848ETO    ETO 1878   0.840   1.782   0.428  0.0335 -0.3385 -0.0752
 1849ETO    ETO 1879   3.137   1.777   2.502 -0.0601  0.0352 -0.5530
 1850ETO    ETO 1880   3.880   5.429   3.096  0.7639 -0.2331  0.0474
 1851ETO    ETO 1881   5.727   0.987   4.475 -0.3370  0.0942 -0.2225
 1852ETO    ETO 1882   4.460   1.121   0.732  0.0068  0.0556  0.2428
 1853ETO    ETO 1883   1.709   0.442   4.365  0.1106  0.2676  0.2196
 1854ETO    ETO 1884   2.902   4.531   4.571  0.2425  0.0685  0.0132
 1855ETO    ETO 1885   2.150   2.270   5.216 -0.4407  0.0905  0.0757
 1856ETO    ETO 1886   5.472   5.473   4.187  0.0956 -0.1752 -0.0794
 1857ETO    ETO 1887   1.234   4.017   3.166  0.3294  0.1492  0.2146
 1858ETO    ETO 1888   3.061   2.357   2.186  0.0693 -0.4417  0.1675
 1859ETO    ETO 1889   0.818   2.053   4.338 -0.0301  0.2848  0.0391
 1860ETO    ETO 1890   3.516   5.325   0.700 -0.0804 -0.3418 -0.0499
 1861ETO    ETO 1891   3.546   4.243   0.894 -0.0938  0.1831  0.0511
 1862ETO    ETO 1892   1.366   4.707   1.641 -0.0839 -0.1289 -0.1921
 1863ETO    ETO 1893   3.965   3.095   2.601  0.1058  0.3272 -0.2080
 1864ETO    ETO 1894   4.874   3.028   4.027  0.2066 -0.3089 -0.1172
 1865ETO    ETO 1895   3.024   0.575   3.898 -0.4283 -0.0794  0.0104
 1866ETO    ETO 1896   4.725   3.690   2.117  0.4552  0.1432  0.1954
 1867ETO    ETO 1897   3.756   2.212   3.835  0.0433  0.0304 -0.0434
 1868ETO    ETO 1898   1.583   1.272   3.814  0.0910  0.4167  0.1200
 1869ETO    ETO 1899   0.979   0.921   5.569 -0.0008 -0.1232  0.0697
 1870ETO    ETO 1900   0.273   2.233   2.179  0.0974  0.1793  0.3609
 1871ETO    ETO 1901   1.359   0.906   3.665 -0.0369  0.1019 -0.1523
 1872ETO    ETO 1902   5.658   4.693   0.001 -0.0117 -0.4012 -0.2503
 1873ETO    ETO 1903   5.064   1.726   5.520 -0.0986  0.0161 -0.1426
 1874ETO    ETO 1904   3.614   5.016   1.059  0.2832 -0.3531 -0.1018
 1875ETO    ETO 1905   5.739   3.888   4.471 -0.2913 -0.0103 -0.0980
 1876ETO    ETO 1906   0.277   0.812   2.078 -0.0601 -0.5171 -0.2372
 1877ETO    ETO 1907   1.782   0.242   5.166  0.0514 -0.1762 -0.2509
 1878ETO    ETO 1908   4.551   2.773   3.449 -0.1718  0.3235 -0.1670
 1879ETO    ETO 1909   5.535   1.487   1.080 -0.0449  0.1765  0.1654
 1880ETO    ETO 1910   2.306   2.355   2.576 -0.1305  0.0323 -0.1482
 1881ETO    ETO 1911   5.631   1.358   1.555 -0.1117 -0.1624 -0.3151
 1882ETO    ETO 1912   3.163   1.436   0.777 -0.2177 -0.2036 -0.0145
 1883ETO    ETO 1913   0.705   5.163   5.301 -0.0810 -0.0039  0.3688
 1884ETO    ETO 1914   2.873   3.637   4.978 -0.2721 -0.3062  0.1129
 1885ETO    ETO 1915   3.797   1.411   2.696 -0.4122 -0.0241 -0.2596
 1886ETO    ETO 1916   0.462   2.955   1.844  0.0175  0.0864 -0.0833
 1887ETO    ETO 1917   3.358   4.003   0.584 -0.0466 -0.1459 -0.6018
 1888ETO    ETO 1918   1.398   1.163   0.468  0.0612  0.0102 -0.2775
 1889ETO    ETO 1919   1.577   3.663   4.933 -0.2411  0.2733 -0.2823
 1890ETO    ETO 1920   5.507   5.406   5.432  0.0953  0.2558  0.1676
 1891ETO    ETO 1921   5.306   3.690   2.055  0.0582  0.0602  0.1725
 1892ETO    ETO 1922   3.780   1.215   0.245 -0.0552 -0.1849 -0.3226
 1893ETO    ETO 1923   3.689   0.613   2.372 -0.0860  0.0548 -0.0401
 1894ETO    ETO 1924   2.870   4.362   5.524 -0.2271 -0.1086 -0.0363
 1895ETO    ETO 1925   4.357   2.074   5.101  0.3719 -0.1897 -0.3327
 1896ETO    ETO 1926   0.916   4.506   5.627  0.2198  0.2752  0.4789
 1897ETO    ETO 1927   0.081   4.523   2.606  0.3820 -0.1281 -0.2416
 1898ETO    ETO 1928   2.298   3.064   5.101 -0.2474 -0.2118 -0.0915
 1899ETO    ETO 1929   3.843   1.688   2.167  0.1774 -0.1160 -0.2037
 1900ETO    ETO 1930   5.587   0.796   1.862  0.1229 -0.2221  0.2418
 1901ETO    ETO 1931   2.602   3.737   1.652 -0.0858  0.0788  0.1605
 1902ETO    ETO 1932   4.110   4.023   1.042  0.2683 -0.3539 -0.1026
 1903ETO    ETO 1933   3.099   2.651   0.302 -0.3379 -0.4412 -0.5116
 1904ETO    ETO 1934   3.814   5.559   2.610  0.1606 -0.2153  0.2092
 1905ETO    ETO 1935   4.377   5.011   4.720  0.1215  0.4217  0.1196
 1906ETO    ETO 1936   3.331   4.378   2.342  0.3722 -0.0878 -0.1378
 1907ETO    ETO 1937   2.694   2.328   1.290 -0.3742  0.4963 -0.2855
 1908ETO    ETO 1938   3.259   4.723   4.844 -0.0925  0.4270 -0.1664
 1909ETO    ETO 1939   1.576   3.230   0.562 -0.1476 -0.1525 -0.0738
 1910ETO    ETO 1940   1.504   2.516   0.178 -0.2977 -0.1840  0.0628
 1911ETO    ETO 1941   3.696   0.783   0.851  0.0512 -0.1312  0.0581
 1912ETO    ETO 1942   0.840   4.791   5.029  0.5268  0.1746 -0.0237
 1913ETO    ETO 1943   1.313   1.403   0.783  0.3310 -0.0803  0.0431
 1914ETO    ETO 1944   1.204   3.472   4.083  0.1835  0.1417 -0.1300
 1915ETO    ETO 1945   5.055   1.733   2.946  0.0834 -0.3552 -0.1011
 1916ETO    ETO 1946   4.154   0.738   1.037 -0.0533 -0.1553  0.0602
 1917ETO    ETO 1947   0.818   4.939   3.078  0.0066  0.2648  0.5303
 1918ETO    ETO 1948   3.950   1.411   1.135  0.0822 -0.4013 -0.1410
 1919ETO    ETO 1949   0.068   3.647   3.368  0.2905 -0.1848  0.1342
 1920ETO    ETO 1950   1.630   2.026   1.866 -0.3177  0.1563  0.1550
 1921ETO    ETO 1951   1.906   3.218   0.265  0.0514  0.1793  0.1434
 1922ETO    ETO 1952   5.572   3.569   2.422 -0.0018 -0.0044 -0.3284
 1923ETO    ETO 1953   1.423   4.241   2.159 -0.1687  0.0737 -0.1423
 1924ETO    ETO 1954   2.275   0.069   5.419  0.0126  0.2161  0.5522
 1925ETO    ETO 1955   4.886   0.223   4.104 -0.0179  0.1836 -0.0693
 1926ETO    ETO 1956   3.991   1.916   3.006  0.0960 -0.0025  0.2155
 1927ETO    ETO 1957   1.208   4.469   2.943  0.0536 -0.1975 -0.1569
 1928ETO    ETO 1958   0.245   0.829   4.002 -0.0845 -0.0184 -0.1178
 1929ETO    ETO 1959   1.777   2.428   1.524  0.5187 -0.4373  0.2123
 1930ETO    ETO 1960   5.441   2.347   1.245 -0.1232  0.4532  0.0042
 1931ETO    ETO 1961   4.249   3.431   2.523  0.2470  0.0747 -0.0742
 1932ETO    ETO 1962   2.518   1.625   2.325  0.2398 -0.0362  0.1005
 1933ETO    ETO 1963   1.502   5.440   2.657  0.0169 -0.1856 -0.0537
 1934ETO    ETO 1964   5.630   4.253   4.768  0.0371 -0.4363  0.1018
 1935ETO    ETO 1965   2.622   1.832   3.330  0.2372  0.1993  0.1881
 1936ETO    ETO 1966   0.745   2.994   0.300 -0.0183  0.1452  0.0053
 1937ETO    ETO 1967   3.371   0.548   1.816 -0.1443  0.2337  0.0333
 1938ETO    ETO 1968   1.877   3.795   0.517  0.0470  0.2795 -0.2162
 1939ETO    ETO 1969   2.045   4.114   2.356  0.6226  0.0773 -0.0740
 1940ETO    ETO 1970   2.616   2.593   2.922  0.0769 -0.0736  0.2813
 1941ETO    ETO 1971   5.305   2.813   2.055  0.5130 -0.0281  0.1636
 1942ETO    ETO 1972   3.284   2.271   0.199  0.0142  0.0022 -0.1397
 1943ETO    ETO 1973   0.175   3.590   1.389  0.0429  0.2200 -0.1491
 1944ETO    ETO 1974   1.313   4.354   5.591  0.1513  0.0140  0.3141
 1945ETO    ETO 1975   5.643   1.664   5.532 -0.0618  0.2739 -0.0626
 1946ETO    ETO 1976   4.555   3.041   4.800  0.1722 -0.0902  0.2915
 1947ETO    ETO 1977   2.365   3.481   5.278  0.0163 -0.1024  0.1597
 1948ETO    ETO 1978   1.919   2.698   1.112 -0.2098  0.0057 -0.0748
 1949ETO    ETO 1979   3.359   1.138   1.600 -0.1796  0.0875  0.3109
 1950ETO    ETO 1980   2.985   4.847   5.218 -0.1459 -0.0789 -0.0943
 1951ETO    ETO 1981   3.424   1.000   5.281 -0.0629  0.1593  0.0339
 1952ETO    ETO 1982   1.611   2.836   0.907 -0.0835  0.2705  0.4665
 1953ETO    ETO 1983   0.033   0.014   4.437 -0.2545  0.0560  0.0261
 1954ETO    ETO 1984   5.225   5.182   2.882 -0.1266 -0.0036  0.1372
 1955ETO    ETO 1985   1.444   1.185   2.825 -0.1632  0.2823  0.2148
 1956ETO    ETO 1986   4.058   0.992   0.018  0.1993 -0.2089  0.2638
 1957ETO    ETO 1987   3.068   4.569   0.305 -0.4967  0.0228  0.2682
 1958ETO    ETO 1988   1.210   1.850   0.186  0.0783  0.1524  0.0615
 1959ETO    ETO 1989   2.047   0.400   1.524 -0.0253  0.2047  0.2754
 1960ETO    ETO 1990   1.211   3.361   0.869 -0.2238  0.1613 -0.2846
 1961ETO    ETO 1991   3.361   2.264   2.494  0.0160  0.0015 -0.3537
 1962ETO    ETO 1992   2.192   1.436   0.267 -0.0322 -0.3306 -0.1949
 1963ETO    ETO 1993   4.570   2.581   4.826  0.0016 -0.5964  0.1845
 1964ETO    ETO 1994   3.764   2.476   0.707 -0.0330  0.2061 -0.3780
 1965ETO    ETO 1995   0.057   4.284   2.201  0.1687 -0.2738  0.1625
 1966ETO    ETO 1996   3.691   3.579   3.737  0.1534 -0.0080  0.0585
 1967ETO    ETO 1997   1.034   3.033   4.476 -0.0387 -0.1853 -0.0702
 1968ETO    ETO 1998   3.215   0.126   5.577  0.1004 -0.1943 -0.0161
 1969ETO    ETO 1999   0.108   5.310   2.452  0.2428  0.0342 -0.3418
 1970ETO    ETO 2000   0.367   2.125   4.350 -0.2091  0.3759 -0.2681
 1971ETO    ETO 2001   2.877   5.132   3.693  0.2761 -0.1125 -0.0416
 1972ETO    ETO 2002   5.121   3.480   0.112 -0.2345 -0.3288  0.3546
 1973ETO    ETO 2003   5.423   0.316   4.950 -0.2085 -0.1934 -0.1102
 1974ETO    ETO 2004   2.606   0.923   1.822 -0.0316 -0.1243 -0.2040
 1975ETO    ETO 2005   2.743   1.704   1.962 -0.2251 -0.2856  0.2232
 1976ETO    ETO 2006   0.096   4.643   4.802 -0.1939 -0.1423  0.1304
 1977ETO    ETO 2007   3.316   3.830   1.171 -0.3458 -0.0789 -0.0967
 1978ETO    ETO 2008   1.902   5.325   2.864  0.0966  0.0009  0.1403
 1979ETO    ETO 2009   0.546   5.117   2.783  0.0496  0.0196 -0.1150
 1980ETO    ETO 2010   2.265   0.536   3.488  0.1106 -0.3363  0.1952
 1981ETO    ETO 2011   4.481   4.220   3.566 -0.0870  0.2868  0.2931
 1982ETO    ETO 2012   3.287   5.666   1.411  0.2252 -0.2674 -0.4270
 1983ETO    ETO 2013   1.861   2.683   1.864  0.0957  0.0145 -0.1201
 1984ETO    ETO 2014   3.465   3.085   0.184  0.0566  0.1949 -0.0676
 1985ETO    ETO 2015   0.568   2.076   5.399  0.2916 -0.0584 -0.0223
 1986ETO    ETO 2016   4.136   2.452   4.572  0.0245 -0.1931  0.1105
 1987ETO    ETO 2017   3.450   4.692   2.121  0.2015 -0.2661 -0.2210
 1988ETO    ETO 2018   0.474   3.841   0.289  0.4532 -0.1464  0.1323
 1989ETO    ETO 2019   0.412   4.920   4.559  0.0489  0.0610 -0.5983
 1990ETO    ETO 2020   2.108   4.220   3.651  0.0441 -0.0622 -0.2780
 1991ETO    ETO 2021   5.229   4.326   0.451 -0.1399 -0.1963  0.1131
 1992ETO    ETO 2022   0.051   0.722   0.655  0.1117 -0.1065 -0.2070
 1993ETO    ETO 2023   1.444   3.610   3.714 -0.0774 -0.0067  0.0451
 1994ETO    ETO 2024   3.756   0.506   3.855  0.3452  0.2672  0.0310
 1995ETO    ETO 2025   5.354   4.103   2.360  0.4881  0.0214  0.2926
 1996ETO    ETO 2026   1.531   0.364   2.484 -0.1315  0.1571 -0.1998
 1997ETO    ETO 2027   5.006   4.841   3.249  0.2092 -0.1383  0.3044
 1998ETO    ETO 2028   4.560   2.544   5.380 -0.1302 -0.0575  0.1208
 1999ETO    ETO 2029   2.992   1.589   3.794  0.2991 -0.0675  0.1467
 2000ETO    ETO 2030   5.056   5.013   2.185  0.1794 -0.0740 -0.2197
 2001ETO    ETO 2031   1.114   3.037   4.044  0.0536 -0.0644  0.1596
 2002ETO    ETO 2032   1.074   4.112   0.687  0.1089  0.5143 -0.0411
 2003ETO    ETO 2033   2.169   5.270   4.754  0.0678  0.0774 -0.1299
 2004ETO    ETO 2034   2.967   2.226   3.254  0.4633  0.2356  0.1975
 2005ETO    ETO 2035   1.375   0.739   2.802 -0.2077  0.1007 -0.1361
 2006ETO    ETO 2036   5.406   2.569   5.574 -0.1332  0.4446 -0.2563
 2007ETO    ETO 2037   2.545   5.685   1.549  0.3536  0.1485 -0.1348
 2008ETO    ETO 2038   4.193   2.698   0.626  0.1207  0.0825  0.1786
 2009ETO    ETO 2039   4.935   1.157   5.413 -0.1220  0.0758  0.1462
 2010ETO    ETO 2040   4.375   0.600   3.404 -0.2947  0.2049  0.3406
 2011ETO    ETO 2041   2.367   3.304   1.882 -0.0120  0.0902  0.0957
 2012ETO    ETO 2042   3.946   4.013   4.631 -0.0091 -0.0795  0.0602
 2013ETO    ETO 2043   3.658   1.979   3.324  0.1687  0.1085 -0.0782
 2014ETO    ETO 2044   2.234   4.716   4.592 -0.4100  0.2595  0.2610
 2015ETO    ETO 2045   0.187   4.831   0.901  0.1069  0.0560  0.2452
   5.73973   5.73973   5.73973
