; /home/vinicius/python_venvs/polyply-env/bin/polyply gen_params -lib brushes_martini -o phema.itp -name HEMA -seq HEMA:15

; Please cite the following papers:

[ moleculetype ]
HEMA 1

[ atoms ]
 1 SCM  1 HEMA CM  1 0.0 54.0
 2 N4M  1 HEMA OM  2 0.0 72.0
 3 TP1  1 HEMA OH  3 0.0 36.0
 4 SCM  2 HEMA CM  4 0.0 54.0
 5 N4M  2 HEMA OM  5 0.0 72.0
 6 TP1  2 HEMA OH  6 0.0 36.0
 7 SCM  3 HEMA CM  7 0.0 54.0
 8 N4M  3 HEMA OM  8 0.0 72.0
 9 TP1  3 HEMA OH  9 0.0 36.0
10 SCM  4 HEMA CM 10 0.0 54.0
11 N4M  4 HEMA OM 11 0.0 72.0
12 TP1  4 HEMA OH 12 0.0 36.0
13 SCM  5 HEMA CM 13 0.0 54.0
14 N4M  5 HEMA OM 14 0.0 72.0
15 TP1  5 HEMA OH 15 0.0 36.0
16 SCM  6 HEMA CM 16 0.0 54.0
17 N4M  6 HEMA OM 17 0.0 72.0
18 TP1  6 HEMA OH 18 0.0 36.0
19 SCM  7 HEMA CM 19 0.0 54.0
20 N4M  7 HEMA OM 20 0.0 72.0
21 TP1  7 HEMA OH 21 0.0 36.0
22 SCM  8 HEMA CM 22 0.0 54.0
23 N4M  8 HEMA OM 23 0.0 72.0
24 TP1  8 HEMA OH 24 0.0 36.0
25 SCM  9 HEMA CM 25 0.0 54.0
26 N4M  9 HEMA OM 26 0.0 72.0
27 TP1  9 HEMA OH 27 0.0 36.0
28 SCM 10 HEMA CM 28 0.0 54.0
29 N4M 10 HEMA OM 29 0.0 72.0
30 TP1 10 HEMA OH 30 0.0 36.0
31 SCM 11 HEMA CM 31 0.0 54.0
32 N4M 11 HEMA OM 32 0.0 72.0
33 TP1 11 HEMA OH 33 0.0 36.0
34 SCM 12 HEMA CM 34 0.0 54.0
35 N4M 12 HEMA OM 35 0.0 72.0
36 TP1 12 HEMA OH 36 0.0 36.0
37 SCM 13 HEMA CM 37 0.0 54.0
38 N4M 13 HEMA OM 38 0.0 72.0
39 TP1 13 HEMA OH 39 0.0 36.0
40 SCM 14 HEMA CM 40 0.0 54.0
41 N4M 14 HEMA OM 41 0.0 72.0
42 TP1 14 HEMA OH 42 0.0 36.0
43 SCM 15 HEMA CM 43 0.0 54.0
44 N4M 15 HEMA OM 44 0.0 72.0
45 TP1 15 HEMA OH 45 0.0 36.0

[ bonds ]
 1  2 1 0.282 40000
 2  3 1 0.360 4294
 4  5 1 0.282 40000
 5  6 1 0.360 4294
 7  8 1 0.282 40000
 8  9 1 0.360 4294
10 11 1 0.282 40000
11 12 1 0.360 4294
13 14 1 0.282 40000
14 15 1 0.360 4294
16 17 1 0.282 40000
17 18 1 0.360 4294
19 20 1 0.282 40000
20 21 1 0.360 4294
22 23 1 0.282 40000
23 24 1 0.360 4294
25 26 1 0.282 40000
26 27 1 0.360 4294
28 29 1 0.282 40000
29 30 1 0.360 4294
31 32 1 0.282 40000
32 33 1 0.360 4294
34 35 1 0.282 40000
35 36 1 0.360 4294
37 38 1 0.282 40000
38 39 1 0.360 4294
40 41 1 0.282 40000
41 42 1 0.360 4294
43 44 1 0.282 40000
44 45 1 0.360 4294
 1  4 1 0.281 15000
 4  7 1 0.281 15000
 7 10 1 0.281 15000
10 13 1 0.281 15000
13 16 1 0.281 15000
16 19 1 0.281 15000
19 22 1 0.281 15000
22 25 1 0.281 15000
25 28 1 0.281 15000
28 31 1 0.281 15000
31 34 1 0.281 15000
34 37 1 0.281 15000
37 40 1 0.281 15000
40 43 1 0.281 15000

[ angles ]
 1  2  3 1 139 150
 4  5  6 1 139 150
 7  8  9 1 139 150
10 11 12 1 139 150
13 14 15 1 139 150
16 17 18 1 139 150
19 20 21 1 139 150
22 23 24 1 139 150
25 26 27 1 139 150
28 29 30 1 139 150
31 32 33 1 139 150
34 35 36 1 139 150
37 38 39 1 139 150
40 41 42 1 139 150
43 44 45 1 139 150
 4  7  8 10 90.0 100.0
 5  4  7 1 105.0 90.0
 1  4  7 10 150.0 40.0
 7 10 11 10 90.0 100.0
 8  7 10 1 105.0 90.0
 4  7 10 10 150.0 40.0
10 13 14 10 90.0 100.0
11 10 13 1 105.0 90.0
 7 10 13 10 150.0 40.0
13 16 17 10 90.0 100.0
14 13 16 1 105.0 90.0
10 13 16 10 150.0 40.0
16 19 20 10 90.0 100.0
17 16 19 1 105.0 90.0
13 16 19 10 150.0 40.0
19 22 23 10 90.0 100.0
20 19 22 1 105.0 90.0
16 19 22 10 150.0 40.0
22 25 26 10 90.0 100.0
23 22 25 1 105.0 90.0
19 22 25 10 150.0 40.0
25 28 29 10 90.0 100.0
26 25 28 1 105.0 90.0
22 25 28 10 150.0 40.0
28 31 32 10 90.0 100.0
29 28 31 1 105.0 90.0
25 28 31 10 150.0 40.0
31 34 35 10 90.0 100.0
32 31 34 1 105.0 90.0
28 31 34 10 150.0 40.0
34 37 38 10 90.0 100.0
35 34 37 1 105.0 90.0
31 34 37 10 150.0 40.0
37 40 41 10 90.0 100.0
38 37 40 1 105.0 90.0
34 37 40 10 150.0 40.0
40 43 44 10 90.0 100.0
41 40 43 1 105.0 90.0
37 40 43 10 150.0 40.0

